                               Psi4 1.3.2 release

  ==> Input File <==

--------------------------------------------------------------------------
#psi4
#
memory 32 gb

molecule  {
0 1
  C        0.0000000    -1.3936580     1.0640200
  C        1.2077370    -0.6968160     1.0627950
  C        1.2077370     0.6968160     1.0627950
  C        0.0000000     1.3936580     1.0640200
  C       -1.2077370     0.6968160     1.0627950
  C       -1.2077370    -0.6968160     1.0627950
  H        0.0000000    -2.4753200     1.0692940
  H        2.1443140    -1.2373140     1.0618960
  H        2.1443140     1.2373140     1.0618960
  H        0.0000000     2.4753200     1.0692940
  H       -2.1443140     1.2373140     1.0618960
  H       -2.1443140    -1.2373140     1.0618960
--
0 1
  S        0.0000000    -0.0000000    -3.0662091
  H        0.0000000     0.9544370    -2.1301411
  H        0.0000000    -0.9544370    -2.1301411
units angstrom
no_reorient  #important for SAPT in psi4, default
symmetry c1  #important for SAPT in psi4, default
}

set {
basis aug-cc-pVDZ
scf_type DF
freeze_core True
}
energy('sapt2+')
--------------------------------------------------------------------------

  //              Dimer HF             //
    Molecular point group: c1
  Charge       = 0
  Multiplicity = 1
  Basis Set: AUG-CC-PVDZ
    Blend: AUG-CC-PVDZ
  Basis Set: (AUG-CC-PVDZ AUX)
    Blend: AUG-CC-PVDZ-JKFIT
  @DF-RHF Final Energy:  -629.42686890271330
    Total Energy =                       -629.4268689027132950
  //            Monomer A HF           //
    Molecular point group: c1
  Multiplicity = 1
  Basis Set: AUG-CC-PVDZ
    Blend: AUG-CC-PVDZ
  Basis Set: (AUG-CC-PVDZ AUX)
    Blend: AUG-CC-PVDZ-JKFIT
  @DF-RHF Final Energy:  -230.72822581478846
    Total Energy =                       -230.7282258147884590
  //            Monomer B HF           //
    Molecular point group: c1

    Geometry (in Angstrom), charge = 0, multiplicity = 1:

       Center              X                  Y                   Z               Mass
    ------------   -----------------  -----------------  -----------------  -----------------
      Gh(C)           0.000000000000    -1.393658000000     1.236644156231    12.000000000000
      Gh(C)           1.207737000000    -0.696816000000     1.235419156231    12.000000000000
      Gh(C)           1.207737000000     0.696816000000     1.235419156231    12.000000000000
      Gh(C)           0.000000000000     1.393658000000     1.236644156231    12.000000000000
      Gh(C)          -1.207737000000     0.696816000000     1.235419156231    12.000000000000
      Gh(C)          -1.207737000000    -0.696816000000     1.235419156231    12.000000000000
      Gh(H)           0.000000000000    -2.475320000000     1.241918156231     1.007825032230
      Gh(H)           2.144314000000    -1.237314000000     1.234520156231     1.007825032230
      Gh(H)           2.144314000000     1.237314000000     1.234520156231     1.007825032230
      Gh(H)           0.000000000000     2.475320000000     1.241918156231     1.007825032230
      Gh(H)          -2.144314000000     1.237314000000     1.234520156231     1.007825032230
      Gh(H)          -2.144314000000    -1.237314000000     1.234520156231     1.007825032230
         S            0.000000000000     0.000000000000    -2.893584943769    31.972071174400
         H            0.000000000000     0.954437000000    -1.957516943769     1.007825032230
         H            0.000000000000    -0.954437000000    -1.957516943769     1.007825032230

  Charge       = 0
  Multiplicity = 1
  Basis Set: AUG-CC-PVDZ
    Blend: AUG-CC-PVDZ
  Basis Set: (AUG-CC-PVDZ AUX)
    Blend: AUG-CC-PVDZ-JKFIT

    Orbital Energies [Eh]
    ---------------------

    Doubly Occupied:

       1A    -91.971106     2A     -8.973130     3A     -6.655189
       4A     -6.654180     5A     -6.651684     6A     -0.985213
       7A     -0.587610     8A     -0.503781     9A     -0.384878

  @DF-RHF Final Energy:  -398.69796653118766

   => Energetics <=

    Nuclear Repulsion Energy =             12.9440448015702305
    One-Electron Energy =                -576.5504819726016876
    Two-Electron Energy =                 164.9084706398437561
    Total Energy =                       -398.6979665311876602

  Dipole Moment: [D]
     X:     0.0000      Y:     0.0000      Z:     1.1246     Total:     1.1246

    SAPT Results
  --------------------------------------------------------------------------------------------------------
    Electrostatics                 -2.11992205 [mEh]      -1.33027117 [kcal/mol]      -5.56585457 [kJ/mol]
      Elst10,r                     -2.36854815 [mEh]      -1.48628640 [kcal/mol]      -6.21862230 [kJ/mol]
      Elst12,r                      0.24862610 [mEh]       0.15601523 [kcal/mol]       0.65276773 [kJ/mol]

    Exchange                        2.47931452 [mEh]       1.55579335 [kcal/mol]       6.50943937 [kJ/mol]
      Exch10                        2.26880268 [mEh]       1.42369517 [kcal/mol]       5.95674060 [kJ/mol]
      Exch10(S^2)                   2.26826637 [mEh]       1.42335864 [kcal/mol]       5.95533254 [kJ/mol]
      Exch11(S^2)                   0.13616627 [mEh]       0.08544562 [kcal/mol]       0.35750448 [kJ/mol]
      Exch12(S^2)                   0.07434558 [mEh]       0.04665255 [kcal/mol]       0.19519428 [kJ/mol]

    Induction                      -0.59222944 [mEh]      -0.37162959 [kcal/mol]      -1.55489819 [kJ/mol]
      Ind20,r                      -0.70509375 [mEh]      -0.44245301 [kcal/mol]      -1.85122340 [kJ/mol]
      Ind22                        -0.03663786 [mEh]      -0.02299061 [kcal/mol]      -0.09619269 [kJ/mol]
      Exch-Ind20,r                  0.40837178 [mEh]       0.25625716 [kcal/mol]       1.07217997 [kJ/mol]
      Exch-Ind22                    0.02121969 [mEh]       0.01331555 [kcal/mol]       0.05571228 [kJ/mol]
      delta HF,r (2)               -0.28008930 [mEh]      -0.17575869 [kcal/mol]      -0.73537435 [kJ/mol]

    Dispersion                     -3.73447682 [mEh]      -2.34341959 [kcal/mol]      -9.80486755 [kJ/mol]
      Disp20                       -4.44117233 [mEh]      -2.78687771 [kcal/mol]     -11.66029636 [kJ/mol]
      Disp21                        1.06714586 [mEh]       0.66964414 [kcal/mol]       2.80179107 [kJ/mol]
      Disp22 (SDQ)                  0.11340114 [mEh]       0.07116029 [kcal/mol]       0.29773464 [kJ/mol]
      Disp22 (T)                   -0.74246212 [mEh]      -0.46590201 [kcal/mol]      -1.94933402 [kJ/mol]
      Est. Disp22 (T)              -0.79066539 [mEh]      -0.49615003 [kcal/mol]      -2.07589171 [kJ/mol]
      Exch-Disp20                   0.31681391 [mEh]       0.19880373 [kcal/mol]       0.83179480 [kJ/mol]

  Total HF                         -0.67655674 [mEh]      -0.42454576 [kcal/mol]      -1.77629947 [kJ/mol]
  Total SAPT0                      -4.80091516 [mEh]      -3.01261975 [kcal/mol]     -12.60480103 [kJ/mol]
  Total SAPT2                      -4.35719540 [mEh]      -2.73418139 [kcal/mol]     -11.43981495 [kJ/mol]
  Total SAPT2+                     -3.96731380 [mEh]      -2.48952699 [kcal/mol]     -10.41618094 [kJ/mol]

  Special recipe for scaled SAPT0 (see Manual):
    Electrostatics sSAPT0          -2.36854815 [mEh]      -1.48628640 [kcal/mol]      -6.21862230 [kJ/mol]
    Exchange sSAPT0                 2.26880268 [mEh]       1.42369517 [kcal/mol]       5.95674060 [kJ/mol]
    Induction sSAPT0               -0.57652154 [mEh]      -0.36177273 [kcal/mol]      -1.51365709 [kJ/mol]
    Dispersion sSAPT0              -4.12413365 [mEh]      -2.58793294 [kcal/mol]     -10.82791142 [kJ/mol]
  Total sSAPT0                     -4.80040066 [mEh]      -3.01229689 [kcal/mol]     -12.60345020 [kJ/mol]
  --------------------------------------------------------------------------------------------------------

*** Psi4 exiting successfully. Buy a developer a beer!
