                               Psi4 1.3.2 release

  ==> Input File <==

--------------------------------------------------------------------------
#psi4
#
memory 32 gb

molecule  {
0 1
  C        0.0000000    -1.3936580     1.0640200
  C        1.2077370    -0.6968160     1.0627950
  C        1.2077370     0.6968160     1.0627950
  C        0.0000000     1.3936580     1.0640200
  C       -1.2077370     0.6968160     1.0627950
  C       -1.2077370    -0.6968160     1.0627950
  H        0.0000000    -2.4753200     1.0692940
  H        2.1443140    -1.2373140     1.0618960
  H        2.1443140     1.2373140     1.0618960
  H        0.0000000     2.4753200     1.0692940
  H       -2.1443140     1.2373140     1.0618960
  H       -2.1443140    -1.2373140     1.0618960
--
0 1
  S        0.0000000     0.0000000    -1.9400057
  H        0.0000000     0.9544370    -1.0039377
  H        0.0000000    -0.9544370    -1.0039377
units angstrom
no_reorient  #important for SAPT in psi4, default
symmetry c1  #important for SAPT in psi4, default
}

set {
basis aug-cc-pVDZ
scf_type DF
freeze_core True
}
energy('sapt2+')
--------------------------------------------------------------------------

  //              Dimer HF             //
    Molecular point group: c1
  Charge       = 0
  Multiplicity = 1
  Basis Set: AUG-CC-PVDZ
    Blend: AUG-CC-PVDZ
  Basis Set: (AUG-CC-PVDZ AUX)
    Blend: AUG-CC-PVDZ-JKFIT
  @DF-RHF Final Energy:  -629.39578821736143
    Total Energy =                       -629.3957882173614280
  //            Monomer A HF           //
    Molecular point group: c1
  Multiplicity = 1
  Basis Set: AUG-CC-PVDZ
    Blend: AUG-CC-PVDZ
  Basis Set: (AUG-CC-PVDZ AUX)
    Blend: AUG-CC-PVDZ-JKFIT
  @DF-RHF Final Energy:  -230.72921108678224
    Total Energy =                       -230.7292110867822430
  //            Monomer B HF           //
    Molecular point group: c1

    Geometry (in Angstrom), charge = 0, multiplicity = 1:

       Center              X                  Y                   Z               Mass
    ------------   -----------------  -----------------  -----------------  -----------------
      Gh(C)           0.000000000000    -1.393658000000     0.894990213499    12.000000000000
      Gh(C)           1.207737000000    -0.696816000000     0.893765213499    12.000000000000
      Gh(C)           1.207737000000     0.696816000000     0.893765213499    12.000000000000
      Gh(C)           0.000000000000     1.393658000000     0.894990213499    12.000000000000
      Gh(C)          -1.207737000000     0.696816000000     0.893765213499    12.000000000000
      Gh(C)          -1.207737000000    -0.696816000000     0.893765213499    12.000000000000
      Gh(H)           0.000000000000    -2.475320000000     0.900264213499     1.007825032230
      Gh(H)           2.144314000000    -1.237314000000     0.892866213499     1.007825032230
      Gh(H)           2.144314000000     1.237314000000     0.892866213499     1.007825032230
      Gh(H)           0.000000000000     2.475320000000     0.900264213499     1.007825032230
      Gh(H)          -2.144314000000     1.237314000000     0.892866213499     1.007825032230
      Gh(H)          -2.144314000000    -1.237314000000     0.892866213499     1.007825032230
         S            0.000000000000     0.000000000000    -2.109035486501    31.972071174400
         H            0.000000000000     0.954437000000    -1.172967486501     1.007825032230
         H            0.000000000000    -0.954437000000    -1.172967486501     1.007825032230

  Charge       = 0
  Multiplicity = 1
  Basis Set: AUG-CC-PVDZ
    Blend: AUG-CC-PVDZ
  Basis Set: (AUG-CC-PVDZ AUX)
    Blend: AUG-CC-PVDZ-JKFIT

    Orbital Energies [Eh]
    ---------------------

    Doubly Occupied:

       1A    -91.971257     2A     -8.973093     3A     -6.655158
       4A     -6.654167     5A     -6.651683     6A     -0.985139
       7A     -0.587484     8A     -0.503670     9A     -0.384791

  @DF-RHF Final Energy:  -398.69830701758082

   => Energetics <=

    Nuclear Repulsion Energy =             12.9440448015702323
    One-Electron Energy =                -576.5518181754006264
    Two-Electron Energy =                 164.9094663562495384
    Total Energy =                       -398.6983070175808166

  Dipole Moment: [D]
     X:     0.0000      Y:     0.0000      Z:     1.1268     Total:     1.1268

    SAPT Results
  --------------------------------------------------------------------------------------------------------
    Electrostatics                -25.85890153 [mEh]     -16.22670569 [kcal/mol]     -67.89253661 [kJ/mol]
      Elst10,r                    -25.55204605 [mEh]     -16.03415097 [kcal/mol]     -67.08688767 [kJ/mol]
      Elst12,r                     -0.30685547 [mEh]      -0.19255472 [kcal/mol]      -0.80564894 [kJ/mol]

    Exchange                       69.49234073 [mEh]      43.60710216 [kcal/mol]     182.45211545 [kJ/mol]
      Exch10                       67.45161297 [mEh]      42.32652616 [kcal/mol]     177.09418546 [kJ/mol]
      Exch10(S^2)                  66.40545198 [mEh]      41.67005023 [kcal/mol]     174.34749016 [kJ/mol]
      Exch11(S^2)                   2.93047054 [mEh]       1.83889802 [kcal/mol]       7.69394933 [kJ/mol]
      Exch12(S^2)                  -0.88974278 [mEh]      -0.55832202 [kcal/mol]      -2.33601935 [kJ/mol]

    Induction                     -10.46698326 [mEh]      -6.56813115 [kcal/mol]     -27.48106075 [kJ/mol]
      Ind20,r                     -25.02940745 [mEh]     -15.70619030 [kcal/mol]     -65.71470021 [kJ/mol]
      Ind22                        -1.82493152 [mEh]      -1.14516182 [kcal/mol]      -4.79135705 [kJ/mol]
      Exch-Ind20,r                 20.95181537 [mEh]      13.14746264 [kcal/mol]      55.00898367 [kJ/mol]
      Exch-Ind22                    1.52762819 [mEh]       0.95860116 [kcal/mol]       4.01078725 [kJ/mol]
      delta HF,r (2)               -6.09208784 [mEh]      -3.82284283 [kcal/mol]     -15.99477441 [kJ/mol]

    Dispersion                    -20.65687035 [mEh]     -12.96238184 [kcal/mol]     -54.23460563 [kJ/mol]
      Disp20                      -28.84056598 [mEh]     -18.09772838 [kcal/mol]     -75.72089554 [kJ/mol]
      Disp21                        6.80087425 [mEh]       4.26761302 [kcal/mol]      17.85569289 [kJ/mol]
      Disp22 (SDQ)                  0.51018831 [mEh]       0.32014800 [kcal/mol]       1.33949923 [kJ/mol]
      Disp22 (T)                   -4.38509743 [mEh]      -2.75169018 [kcal/mol]     -11.51307172 [kJ/mol]
      Est. Disp22 (T)              -4.66895909 [mEh]      -2.92981606 [kcal/mol]     -12.25835040 [kJ/mol]
      Exch-Disp20                   5.54159215 [mEh]       3.47740157 [kcal/mol]      14.54944819 [kJ/mol]

  Total HF                         31.72988700 [mEh]      19.91080470 [kcal/mol]      83.30680685 [kJ/mol]
  Total SAPT0                       8.43091317 [mEh]       5.29047789 [kcal/mol]      22.13535949 [kJ/mol]
  Total SAPT2                       9.86748212 [mEh]       6.19193851 [kcal/mol]      25.90707073 [kJ/mol]
  Total SAPT2+                     12.50958560 [mEh]       7.84988347 [kcal/mol]      32.84391246 [kJ/mol]

  Special recipe for scaled SAPT0 (see Manual):
    Electrostatics sSAPT0         -25.55204605 [mEh]     -16.03415097 [kcal/mol]     -67.08688767 [kJ/mol]
    Exchange sSAPT0                67.45161297 [mEh]      42.32652616 [kcal/mol]     177.09418546 [kJ/mol]
    Induction sSAPT0               -9.16376402 [mEh]      -5.75034874 [kcal/mol]     -24.05945913 [kJ/mol]
    Dispersion sSAPT0             -23.03291690 [mEh]     -14.45337356 [kcal/mol]     -60.47291499 [kJ/mol]
  Total sSAPT0                      9.70288600 [mEh]       6.08865289 [kcal/mol]      25.47492368 [kJ/mol]
  --------------------------------------------------------------------------------------------------------

*** Psi4 exiting successfully. Buy a developer a beer!
