                               Psi4 1.3.2 release

  ==> Input File <==

--------------------------------------------------------------------------
#psi4
#
memory 32 gb

molecule  {
0 1
  C        0.0000000    -1.3936580     1.0640200
  C        1.2077370    -0.6968160     1.0627950
  C        1.2077370     0.6968160     1.0627950
  C        0.0000000     1.3936580     1.0640200
  C       -1.2077370     0.6968160     1.0627950
  C       -1.2077370    -0.6968160     1.0627950
  H        0.0000000    -2.4753200     1.0692940
  H        2.1443140    -1.2373140     1.0618960
  H        2.1443140     1.2373140     1.0618960
  H        0.0000000     2.4753200     1.0692940
  H       -2.1443140     1.2373140     1.0618960
  H       -2.1443140    -1.2373140     1.0618960
--
0 1
  S        0.0000000     0.0000000    -2.3154069
  H        0.0000000     0.9544370    -1.3793389
  H        0.0000000    -0.9544370    -1.3793389
units angstrom
no_reorient  #important for SAPT in psi4, default
symmetry c1  #important for SAPT in psi4, default
}

set {
basis aug-cc-pVDZ
scf_type DF
freeze_core True
}
energy('sapt2+')
--------------------------------------------------------------------------

  //              Dimer HF             //
    Molecular point group: c1
  Charge       = 0
  Multiplicity = 1
  Basis Set: AUG-CC-PVDZ
    Blend: AUG-CC-PVDZ
  Basis Set: (AUG-CC-PVDZ AUX)
    Blend: AUG-CC-PVDZ-JKFIT
  @DF-RHF Final Energy:  -629.41832032734055
    Total Energy =                       -629.4183203273405525
  //            Monomer A HF           //
    Molecular point group: c1
  Multiplicity = 1
  Basis Set: AUG-CC-PVDZ
    Blend: AUG-CC-PVDZ
  Basis Set: (AUG-CC-PVDZ AUX)
    Blend: AUG-CC-PVDZ-JKFIT
  @DF-RHF Final Energy:  -230.72892709234441
    Total Energy =                       -230.7289270923444064
  //            Monomer B HF           //
    Molecular point group: c1

    Geometry (in Angstrom), charge = 0, multiplicity = 1:

       Center              X                  Y                   Z               Mass
    ------------   -----------------  -----------------  -----------------  -----------------
      Gh(C)           0.000000000000    -1.393658000000     1.008874881301    12.000000000000
      Gh(C)           1.207737000000    -0.696816000000     1.007649881301    12.000000000000
      Gh(C)           1.207737000000     0.696816000000     1.007649881301    12.000000000000
      Gh(C)           0.000000000000     1.393658000000     1.008874881301    12.000000000000
      Gh(C)          -1.207737000000     0.696816000000     1.007649881301    12.000000000000
      Gh(C)          -1.207737000000    -0.696816000000     1.007649881301    12.000000000000
      Gh(H)           0.000000000000    -2.475320000000     1.014148881301     1.007825032230
      Gh(H)           2.144314000000    -1.237314000000     1.006750881301     1.007825032230
      Gh(H)           2.144314000000     1.237314000000     1.006750881301     1.007825032230
      Gh(H)           0.000000000000     2.475320000000     1.014148881301     1.007825032230
      Gh(H)          -2.144314000000     1.237314000000     1.006750881301     1.007825032230
      Gh(H)          -2.144314000000    -1.237314000000     1.006750881301     1.007825032230
         S            0.000000000000     0.000000000000    -2.370552018699    31.972071174400
         H            0.000000000000     0.954437000000    -1.434484018699     1.007825032230
         H            0.000000000000    -0.954437000000    -1.434484018699     1.007825032230

  Charge       = 0
  Multiplicity = 1
  Basis Set: AUG-CC-PVDZ
    Blend: AUG-CC-PVDZ
  Basis Set: (AUG-CC-PVDZ AUX)
    Blend: AUG-CC-PVDZ-JKFIT

    Orbital Energies [Eh]
    ---------------------

    Doubly Occupied:

       1A    -91.971255     2A     -8.973146     3A     -6.655214
       4A     -6.654215     5A     -6.651724     6A     -0.985175
       7A     -0.587547     8A     -0.503731     9A     -0.384825

  @DF-RHF Final Energy:  -398.69811741482334

   => Energetics <=

    Nuclear Repulsion Energy =             12.9440448015702323
    One-Electron Energy =                -576.5506590234407440
    Two-Electron Energy =                 164.9084968070471291
    Total Energy =                       -398.6981174148233436

  Dipole Moment: [D]
     X:     0.0000      Y:    -0.0000      Z:     1.1260     Total:     1.1260

    SAPT Results
  --------------------------------------------------------------------------------------------------------
    Electrostatics                 -9.97283610 [mEh]      -6.25804913 [kcal/mol]     -26.18367756 [kJ/mol]
      Elst10,r                    -10.06180044 [mEh]      -6.31387510 [kcal/mol]     -26.41725342 [kJ/mol]
      Elst12,r                      0.08896435 [mEh]       0.05582597 [kcal/mol]       0.23357586 [kJ/mol]

    Exchange                       23.78976769 [mEh]      14.92830461 [kcal/mol]      62.46002648 [kJ/mol]
      Exch10                       22.61198346 [mEh]      14.18923384 [kcal/mol]      59.36775440 [kJ/mol]
      Exch10(S^2)                  22.50223714 [mEh]      14.12036698 [kcal/mol]      59.07961546 [kJ/mol]
      Exch11(S^2)                   1.19765561 [mEh]       0.75154024 [kcal/mol]       3.14444437 [kJ/mol]
      Exch12(S^2)                  -0.01987138 [mEh]      -0.01246948 [kcal/mol]      -0.05217230 [kJ/mol]

    Induction                      -3.93073914 [mEh]      -2.46657605 [kcal/mol]     -10.32015419 [kJ/mol]
      Ind20,r                      -7.25335941 [mEh]      -4.55155174 [kcal/mol]     -19.04369250 [kJ/mol]
      Ind22                        -0.56087498 [mEh]      -0.35195437 [kcal/mol]      -1.47257707 [kJ/mol]
      Exch-Ind20,r                  5.89889097 [mEh]       3.70160997 [kcal/mol]      15.48753610 [kJ/mol]
      Exch-Ind22                    0.45613904 [mEh]       0.28623157 [kcal/mol]       1.19759288 [kJ/mol]
      delta HF,r (2)               -2.47153475 [mEh]      -1.55091147 [kcal/mol]      -6.48901360 [kJ/mol]

    Dispersion                    -11.51481416 [mEh]      -7.22565497 [kcal/mol]     -30.23214040 [kJ/mol]
      Disp20                      -15.07116901 [mEh]      -9.45730134 [kcal/mol]     -39.56934879 [kJ/mol]
      Disp21                        3.46237705 [mEh]       2.17267440 [kcal/mol]       9.09046968 [kJ/mol]
      Disp22 (SDQ)                  0.34824158 [mEh]       0.21852489 [kcal/mol]       0.91430815 [kJ/mol]
      Disp22 (T)                   -2.37113517 [mEh]      -1.48790978 [kcal/mol]      -6.22541453 [kJ/mol]
      Est. Disp22 (T)              -2.54590352 [mEh]      -1.59757858 [kcal/mol]      -6.68426877 [kJ/mol]
      Exch-Disp20                   2.29163975 [mEh]       1.43802565 [kcal/mol]       6.01669933 [kJ/mol]

  Total HF                          8.72417983 [mEh]       5.47450549 [kcal/mol]      22.90533098 [kJ/mol]
  Total SAPT0                      -4.05534944 [mEh]      -2.54477019 [kcal/mol]     -10.64731848 [kJ/mol]
  Total SAPT2                      -2.89333681 [mEh]      -1.81559626 [kcal/mol]      -7.59645474 [kJ/mol]
  Total SAPT2+                     -1.62862170 [mEh]      -1.02197554 [kcal/mol]      -4.27594567 [kJ/mol]

  Special recipe for scaled SAPT0 (see Manual):
    Electrostatics sSAPT0         -10.06180044 [mEh]      -6.31387510 [kcal/mol]     -26.41725342 [kJ/mol]
    Exchange sSAPT0                22.61198346 [mEh]      14.18923384 [kcal/mol]      59.36775440 [kJ/mol]
    Induction sSAPT0               -3.73927260 [mEh]      -2.34642898 [kcal/mol]      -9.81745886 [kJ/mol]
    Dispersion sSAPT0             -12.74583560 [mEh]      -7.99813259 [kcal/mol]     -33.46418675 [kJ/mol]
  Total sSAPT0                     -3.93492518 [mEh]      -2.46920283 [kcal/mol]     -10.33114463 [kJ/mol]
  --------------------------------------------------------------------------------------------------------

*** Psi4 exiting successfully. Buy a developer a beer!
