                               Psi4 1.3.2 release

  ==> Input File <==

--------------------------------------------------------------------------
#psi4
#
memory 32 gb

molecule  {
0 1
  C        0.0000000    -1.3936580     1.0640200
  C        1.2077370    -0.6968160     1.0627950
  C        1.2077370     0.6968160     1.0627950
  C        0.0000000     1.3936580     1.0640200
  C       -1.2077370     0.6968160     1.0627950
  C       -1.2077370    -0.6968160     1.0627950
  H        0.0000000    -2.4753200     1.0692940
  H        2.1443140    -1.2373140     1.0618960
  H        2.1443140     1.2373140     1.0618960
  H        0.0000000     2.4753200     1.0692940
  H       -2.1443140     1.2373140     1.0618960
  H       -2.1443140    -1.2373140     1.0618960
--
0 1
  S        0.0000000    -0.0000000    -2.8785086
  H        0.0000000     0.9544370    -1.9424406
  H        0.0000000    -0.9544370    -1.9424406
units angstrom
no_reorient  #important for SAPT in psi4, default
symmetry c1  #important for SAPT in psi4, default
}

set {
basis aug-cc-pVDZ
scf_type DF
freeze_core True
}
energy('sapt2+')
--------------------------------------------------------------------------

  //              Dimer HF             //
    Molecular point group: c1
  Charge       = 0
  Multiplicity = 1
  Basis Set: AUG-CC-PVDZ
    Blend: AUG-CC-PVDZ
  Basis Set: (AUG-CC-PVDZ AUX)
    Blend: AUG-CC-PVDZ-JKFIT
  @DF-RHF Final Energy:  -629.42637874877028
    Total Energy =                       -629.4263787487702757
  //            Monomer A HF           //
    Molecular point group: c1
  Multiplicity = 1
  Basis Set: AUG-CC-PVDZ
    Blend: AUG-CC-PVDZ
  Basis Set: (AUG-CC-PVDZ AUX)
    Blend: AUG-CC-PVDZ-JKFIT
  @DF-RHF Final Energy:  -230.72838675112115
    Total Energy =                       -230.7283867511211497
  //            Monomer B HF           //
    Molecular point group: c1

    Geometry (in Angstrom), charge = 0, multiplicity = 1:

       Center              X                  Y                   Z               Mass
    ------------   -----------------  -----------------  -----------------  -----------------
      Gh(C)           0.000000000000    -1.393658000000     1.179701852667    12.000000000000
      Gh(C)           1.207737000000    -0.696816000000     1.178476852667    12.000000000000
      Gh(C)           1.207737000000     0.696816000000     1.178476852667    12.000000000000
      Gh(C)           0.000000000000     1.393658000000     1.179701852667    12.000000000000
      Gh(C)          -1.207737000000     0.696816000000     1.178476852667    12.000000000000
      Gh(C)          -1.207737000000    -0.696816000000     1.178476852667    12.000000000000
      Gh(H)           0.000000000000    -2.475320000000     1.184975852667     1.007825032230
      Gh(H)           2.144314000000    -1.237314000000     1.177577852667     1.007825032230
      Gh(H)           2.144314000000     1.237314000000     1.177577852667     1.007825032230
      Gh(H)           0.000000000000     2.475320000000     1.184975852667     1.007825032230
      Gh(H)          -2.144314000000     1.237314000000     1.177577852667     1.007825032230
      Gh(H)          -2.144314000000    -1.237314000000     1.177577852667     1.007825032230
         S            0.000000000000     0.000000000000    -2.762826747333    31.972071174400
         H            0.000000000000     0.954437000000    -1.826758747333     1.007825032230
         H            0.000000000000    -0.954437000000    -1.826758747333     1.007825032230

  Charge       = 0
  Multiplicity = 1
  Basis Set: AUG-CC-PVDZ
    Blend: AUG-CC-PVDZ
  Basis Set: (AUG-CC-PVDZ AUX)
    Blend: AUG-CC-PVDZ-JKFIT

    Orbital Energies [Eh]
    ---------------------

    Doubly Occupied:

       1A    -91.971145     2A     -8.973139     3A     -6.655201
       4A     -6.654194     5A     -6.651698     6A     -0.985206
       7A     -0.587600     8A     -0.503774     9A     -0.384868

  @DF-RHF Final Energy:  -398.69798791802504

   => Energetics <=

    Nuclear Repulsion Energy =             12.9440448015702305
    One-Electron Energy =                -576.5504123436229520
    Two-Electron Energy =                 164.9083796240276456
    Total Energy =                       -398.6979879180250350

  Dipole Moment: [D]
     X:     0.0000      Y:    -0.0000      Z:     1.1248     Total:     1.1248

    SAPT Results
  --------------------------------------------------------------------------------------------------------
    Electrostatics                 -2.92882452 [mEh]      -1.83786513 [kcal/mol]      -7.68962772 [kJ/mol]
      Elst10,r                     -3.17359596 [mEh]      -1.99146153 [kcal/mol]      -8.33227503 [kJ/mol]
      Elst12,r                      0.24477143 [mEh]       0.15359639 [kcal/mol]       0.64264731 [kJ/mol]

    Exchange                        4.41171792 [mEh]       2.76839479 [kcal/mol]      11.58296381 [kJ/mol]
      Exch10                        4.07489377 [mEh]       2.55703445 [kcal/mol]      10.69863212 [kJ/mol]
      Exch10(S^2)                   4.07249577 [mEh]       2.55552968 [kcal/mol]      10.69233618 [kJ/mol]
      Exch11(S^2)                   0.24112362 [mEh]       0.15130735 [kcal/mol]       0.63306997 [kJ/mol]
      Exch12(S^2)                   0.09570054 [mEh]       0.06005299 [kcal/mol]       0.25126173 [kJ/mol]

    Induction                      -0.93234813 [mEh]      -0.58505728 [kcal/mol]      -2.44787967 [kJ/mol]
      Ind20,r                      -1.21992984 [mEh]      -0.76551753 [kcal/mol]      -3.20292536 [kJ/mol]
      Ind22                        -0.07965143 [mEh]      -0.04998203 [kcal/mol]      -0.20912480 [kJ/mol]
      Exch-Ind20,r                  0.80685068 [mEh]       0.50630645 [kcal/mol]       2.11838617 [kJ/mol]
      Exch-Ind22                    0.05268074 [mEh]       0.03305767 [kcal/mol]       0.13831327 [kJ/mol]
      delta HF,r (2)               -0.49229828 [mEh]      -0.30892183 [kcal/mol]      -1.29252895 [kJ/mol]

    Dispersion                     -4.91842148 [mEh]      -3.08635607 [kcal/mol]     -12.91331380 [kJ/mol]
      Disp20                       -5.95211032 [mEh]      -3.73500561 [kcal/mol]     -15.62726348 [kJ/mol]
      Disp21                        1.40087249 [mEh]       0.87906076 [kcal/mol]       3.67799022 [kJ/mol]
      Disp22 (SDQ)                  0.15272098 [mEh]       0.09583386 [kcal/mol]       0.40096889 [kJ/mol]
      Disp22 (T)                   -0.99133769 [mEh]      -0.62207379 [kcal/mol]      -2.60275674 [kJ/mol]
      Est. Disp22 (T)              -1.04959626 [mEh]      -0.65863160 [kcal/mol]      -2.75571460 [kJ/mol]
      Exch-Disp20                   0.52969162 [mEh]       0.33238651 [kcal/mol]       1.39070517 [kJ/mol]

  Total HF                         -0.00407962 [mEh]      -0.00256000 [kcal/mol]      -0.01071105 [kJ/mol]
  Total SAPT0                      -5.42649832 [mEh]      -3.40517910 [kcal/mol]     -14.24726936 [kJ/mol]
  Total SAPT2                      -4.87187342 [mEh]      -3.05714672 [kcal/mol]     -12.79110189 [kJ/mol]
  Total SAPT2+                     -4.36787620 [mEh]      -2.74088370 [kcal/mol]     -11.46785738 [kJ/mol]

  Special recipe for scaled SAPT0 (see Manual):
    Electrostatics sSAPT0          -3.17359596 [mEh]      -1.99146153 [kcal/mol]      -8.33227503 [kJ/mol]
    Exchange sSAPT0                 4.07489377 [mEh]       2.55703445 [kcal/mol]      10.69863212 [kJ/mol]
    Induction sSAPT0               -0.90395131 [mEh]      -0.56723801 [kcal/mol]      -2.37332384 [kJ/mol]
    Dispersion sSAPT0              -5.42148245 [mEh]      -3.40203160 [kcal/mol]     -14.23410021 [kJ/mol]
  Total sSAPT0                     -5.42413595 [mEh]      -3.40369669 [kcal/mol]     -14.24106697 [kJ/mol]
  --------------------------------------------------------------------------------------------------------

*** Psi4 exiting successfully. Buy a developer a beer!
