                               Psi4 1.3.2 release

  ==> Input File <==

--------------------------------------------------------------------------
#psi4
#
memory 32 gb

molecule  {
0 1
  C        0.0000000    -1.3936580     1.0640200
  C        1.2077370    -0.6968160     1.0627950
  C        1.2077370     0.6968160     1.0627950
  C        0.0000000     1.3936580     1.0640200
  C       -1.2077370     0.6968160     1.0627950
  C       -1.2077370    -0.6968160     1.0627950
  H        0.0000000    -2.4753200     1.0692940
  H        2.1443140    -1.2373140     1.0618960
  H        2.1443140     1.2373140     1.0618960
  H        0.0000000     2.4753200     1.0692940
  H       -2.1443140     1.2373140     1.0618960
  H       -2.1443140    -1.2373140     1.0618960
--
0 1
  S        0.0000000     0.0000000    -2.5031074
  H        0.0000000     0.9544370    -1.5670394
  H        0.0000000    -0.9544370    -1.5670394
units angstrom
no_reorient  #important for SAPT in psi4, default
symmetry c1  #important for SAPT in psi4, default
}

set {
basis aug-cc-pVDZ
scf_type DF
freeze_core True
}
energy('sapt2+')
--------------------------------------------------------------------------

  //              Dimer HF             //
    Molecular point group: c1
  Charge       = 0
  Multiplicity = 1
  Basis Set: AUG-CC-PVDZ
    Blend: AUG-CC-PVDZ
  Basis Set: (AUG-CC-PVDZ AUX)
    Blend: AUG-CC-PVDZ-JKFIT
  @DF-RHF Final Energy:  -629.42284768861339
    Total Energy =                       -629.4228476886133876
  //            Monomer A HF           //
    Molecular point group: c1
  Multiplicity = 1
  Basis Set: AUG-CC-PVDZ
    Blend: AUG-CC-PVDZ
  Basis Set: (AUG-CC-PVDZ AUX)
    Blend: AUG-CC-PVDZ-JKFIT
  @DF-RHF Final Energy:  -230.72875172882752
    Total Energy =                       -230.7287517288275467
  //            Monomer B HF           //
    Molecular point group: c1

    Geometry (in Angstrom), charge = 0, multiplicity = 1:

       Center              X                  Y                   Z               Mass
    ------------   -----------------  -----------------  -----------------  -----------------
      Gh(C)           0.000000000000    -1.393658000000     1.065817184865    12.000000000000
      Gh(C)           1.207737000000    -0.696816000000     1.064592184865    12.000000000000
      Gh(C)           1.207737000000     0.696816000000     1.064592184865    12.000000000000
      Gh(C)           0.000000000000     1.393658000000     1.065817184865    12.000000000000
      Gh(C)          -1.207737000000     0.696816000000     1.064592184865    12.000000000000
      Gh(C)          -1.207737000000    -0.696816000000     1.064592184865    12.000000000000
      Gh(H)           0.000000000000    -2.475320000000     1.071091184865     1.007825032230
      Gh(H)           2.144314000000    -1.237314000000     1.063693184865     1.007825032230
      Gh(H)           2.144314000000     1.237314000000     1.063693184865     1.007825032230
      Gh(H)           0.000000000000     2.475320000000     1.071091184865     1.007825032230
      Gh(H)          -2.144314000000     1.237314000000     1.063693184865     1.007825032230
      Gh(H)          -2.144314000000    -1.237314000000     1.063693184865     1.007825032230
         S            0.000000000000     0.000000000000    -2.501310215135    31.972071174400
         H            0.000000000000     0.954437000000    -1.565242215135     1.007825032230
         H            0.000000000000    -0.954437000000    -1.565242215135     1.007825032230

  Charge       = 0
  Multiplicity = 1
  Basis Set: AUG-CC-PVDZ
    Blend: AUG-CC-PVDZ
  Basis Set: (AUG-CC-PVDZ AUX)
    Blend: AUG-CC-PVDZ-JKFIT

    Orbital Energies [Eh]
    ---------------------

    Doubly Occupied:

       1A    -91.971226     2A     -8.973152     3A     -6.655218
       4A     -6.654215     5A     -6.651722     6A     -0.985188
       7A     -0.587570     8A     -0.503751     9A     -0.384842

  @DF-RHF Final Energy:  -398.69805868011980

   => Energetics <=

    Nuclear Repulsion Energy =             12.9440448015702323
    One-Electron Energy =                -576.5504392725389380
    Two-Electron Energy =                 164.9083357908488949
    Total Energy =                       -398.6980586801197433

  Dipole Moment: [D]
     X:    -0.0000      Y:     0.0000      Z:     1.1255     Total:     1.1255

    SAPT Results
  --------------------------------------------------------------------------------------------------------
    Electrostatics                 -6.39270069 [mEh]      -4.01148025 [kcal/mol]     -16.78403335 [kJ/mol]
      Elst10,r                     -6.56907500 [mEh]      -4.12215679 [kcal/mol]     -17.24710402 [kJ/mol]
      Elst12,r                      0.17637431 [mEh]       0.11067655 [kcal/mol]       0.46307068 [kJ/mol]

    Exchange                       13.68226608 [mEh]       8.58575159 [kcal/mol]      35.92278465 [kJ/mol]
      Exch10                       12.87814308 [mEh]       8.08115679 [kcal/mol]      33.81156000 [kJ/mol]
      Exch10(S^2)                  12.84522038 [mEh]       8.06049748 [kcal/mol]      33.72512146 [kJ/mol]
      Exch11(S^2)                   0.71946085 [mEh]       0.45146850 [kcal/mol]       1.88894420 [kJ/mol]
      Exch12(S^2)                   0.08466215 [mEh]       0.05312630 [kcal/mol]       0.22228045 [kJ/mol]

    Induction                      -2.41346163 [mEh]      -1.51447004 [kcal/mol]      -6.33654264 [kJ/mol]
      Ind20,r                      -3.93955751 [mEh]      -2.47210966 [kcal/mol]     -10.34330682 [kJ/mol]
      Ind22                        -0.30289044 [mEh]      -0.19006662 [kcal/mol]      -0.79523875 [kJ/mol]
      Exch-Ind20,r                  3.06663796 [mEh]       1.92434437 [kcal/mol]       8.05145685 [kJ/mol]
      Exch-Ind22                    0.23577656 [mEh]       0.14795203 [kcal/mol]       0.61903128 [kJ/mol]
      delta HF,r (2)               -1.47342820 [mEh]      -0.92459015 [kcal/mol]      -3.86848520 [kJ/mol]

    Dispersion                     -8.64258460 [mEh]      -5.42330371 [kcal/mol]     -22.69110273 [kJ/mol]
      Disp20                      -10.97585757 [mEh]      -6.88745461 [kcal/mol]     -28.81711008 [kJ/mol]
      Disp21                        2.52226952 [mEh]       1.58274802 [kcal/mol]       6.62221771 [kJ/mol]
      Disp22 (SDQ)                  0.26977323 [mEh]       0.16928526 [kcal/mol]       0.70828953 [kJ/mol]
      Disp22 (T)                   -1.76808072 [mEh]      -1.10948740 [kcal/mol]      -4.64209530 [kJ/mol]
      Est. Disp22 (T)              -1.88692195 [mEh]      -1.18406140 [kcal/mol]      -4.95411289 [kJ/mol]
      Exch-Disp20                   1.42815216 [mEh]       0.89617901 [kcal/mol]       3.74961299 [kJ/mol]

  Total HF                          3.96272033 [mEh]       2.48664455 [kcal/mol]      10.40412080 [kJ/mol]
  Total SAPT0                      -5.58498507 [mEh]      -3.50463104 [kcal/mol]     -14.66337628 [kJ/mol]
  Total SAPT2                      -4.67160164 [mEh]      -2.93147429 [kcal/mol]     -12.26528842 [kJ/mol]
  Total SAPT2+                     -3.76648083 [mEh]      -2.36350241 [kcal/mol]      -9.88889406 [kJ/mol]

  Special recipe for scaled SAPT0 (see Manual):
    Electrostatics sSAPT0          -6.56907500 [mEh]      -4.12215679 [kcal/mol]     -17.24710402 [kJ/mol]
    Exchange sSAPT0                12.87814308 [mEh]       8.08115679 [kcal/mol]      33.81156000 [kJ/mol]
    Induction sSAPT0               -2.32270760 [mEh]      -1.45752102 [kcal/mol]      -6.09826796 [kJ/mol]
    Dispersion sSAPT0              -9.53669604 [mEh]      -5.98436711 [kcal/mol]     -25.03859200 [kJ/mol]
  Total sSAPT0                     -5.55033555 [mEh]      -3.48288814 [kcal/mol]     -14.57240398 [kJ/mol]
  --------------------------------------------------------------------------------------------------------

*** Psi4 exiting successfully. Buy a developer a beer!
