                               Psi4 1.3.2 release

  ==> Input File <==

--------------------------------------------------------------------------
#psi4
#
memory 32 gb

molecule  {
0 1
  C        0.0000000    -1.3936580     1.0640200
  C        1.2077370    -0.6968160     1.0627950
  C        1.2077370     0.6968160     1.0627950
  C        0.0000000     1.3936580     1.0640200
  C       -1.2077370     0.6968160     1.0627950
  C       -1.2077370    -0.6968160     1.0627950
  H        0.0000000    -2.4753200     1.0692940
  H        2.1443140    -1.2373140     1.0618960
  H        2.1443140     1.2373140     1.0618960
  H        0.0000000     2.4753200     1.0692940
  H       -2.1443140     1.2373140     1.0618960
  H       -2.1443140    -1.2373140     1.0618960
--
0 1
  S        0.0000000     0.0000000    -1.5646046
  H        0.0000000     0.9544370    -0.6285366
  H        0.0000000    -0.9544370    -0.6285366
units angstrom
no_reorient  #important for SAPT in psi4, default
symmetry c1  #important for SAPT in psi4, default
}

set {
basis aug-cc-pVDZ
scf_type DF
freeze_core True
}
energy('sapt2+')
--------------------------------------------------------------------------

  //              Dimer HF             //
    Molecular point group: c1
  Charge       = 0
  Multiplicity = 1
  Basis Set: AUG-CC-PVDZ
    Blend: AUG-CC-PVDZ
  Basis Set: (AUG-CC-PVDZ AUX)
    Blend: AUG-CC-PVDZ-JKFIT
  @DF-RHF Final Energy:  -629.33104930750517
    Total Energy =                       -629.3310493075051681
  //            Monomer A HF           //
    Molecular point group: c1
  Multiplicity = 1
  Basis Set: AUG-CC-PVDZ
    Blend: AUG-CC-PVDZ
  Basis Set: (AUG-CC-PVDZ AUX)
    Blend: AUG-CC-PVDZ-JKFIT
  @DF-RHF Final Energy:  -230.72953619033217
    Total Energy =                       -230.7295361903321691
  //            Monomer B HF           //
    Molecular point group: c1

    Geometry (in Angstrom), charge = 0, multiplicity = 1:

       Center              X                  Y                   Z               Mass
    ------------   -----------------  -----------------  -----------------  -----------------
      Gh(C)           0.000000000000    -1.393658000000     0.781105576034    12.000000000000
      Gh(C)           1.207737000000    -0.696816000000     0.779880576034    12.000000000000
      Gh(C)           1.207737000000     0.696816000000     0.779880576034    12.000000000000
      Gh(C)           0.000000000000     1.393658000000     0.781105576034    12.000000000000
      Gh(C)          -1.207737000000     0.696816000000     0.779880576034    12.000000000000
      Gh(C)          -1.207737000000    -0.696816000000     0.779880576034    12.000000000000
      Gh(H)           0.000000000000    -2.475320000000     0.786379576034     1.007825032230
      Gh(H)           2.144314000000    -1.237314000000     0.778981576034     1.007825032230
      Gh(H)           2.144314000000     1.237314000000     0.778981576034     1.007825032230
      Gh(H)           0.000000000000     2.475320000000     0.786379576034     1.007825032230
      Gh(H)          -2.144314000000     1.237314000000     0.778981576034     1.007825032230
      Gh(H)          -2.144314000000    -1.237314000000     0.778981576034     1.007825032230
         S            0.000000000000     0.000000000000    -1.847519023966    31.972071174400
         H            0.000000000000     0.954437000000    -0.911451023966     1.007825032230
         H            0.000000000000    -0.954437000000    -0.911451023966     1.007825032230

  Charge       = 0
  Multiplicity = 1
  Basis Set: AUG-CC-PVDZ
    Blend: AUG-CC-PVDZ
  Basis Set: (AUG-CC-PVDZ AUX)
    Blend: AUG-CC-PVDZ-JKFIT

    Orbital Energies [Eh]
    ---------------------

    Doubly Occupied:

       1A    -91.971221     2A     -8.973005     3A     -6.655066
       4A     -6.654078     5A     -6.651608     6A     -0.985077
       7A     -0.587397     8A     -0.503566     9A     -0.384765

  @DF-RHF Final Energy:  -398.69859933257601

   => Energetics <=

    Nuclear Repulsion Energy =             12.9440448015702323
    One-Electron Energy =                -576.5537213087694681
    Two-Electron Energy =                 164.9110771746231876
    Total Energy =                       -398.6985993325760091

  Dipole Moment: [D]
     X:     0.0000      Y:    -0.0000      Z:     1.1271     Total:     1.1271

    SAPT Results
  --------------------------------------------------------------------------------------------------------
    Electrostatics                -68.46906244 [mEh]     -42.96498534 [kcal/mol]    -179.76549866 [kJ/mol]
      Elst10,r                    -67.12941189 [mEh]     -42.12434193 [kcal/mol]    -176.24824664 [kJ/mol]
      Elst12,r                     -1.33965054 [mEh]      -0.84064341 [kcal/mol]      -3.51725202 [kJ/mol]

    Exchange                      191.83727177 [mEh]     120.37970546 [kcal/mol]     503.66868765 [kJ/mol]
      Exch10                      190.67425299 [mEh]     119.64990015 [kcal/mol]     500.61518225 [kJ/mol]
      Exch10(S^2)                 182.40808852 [mEh]     114.46280364 [kcal/mol]     478.91237044 [kJ/mol]
      Exch11(S^2)                   5.20183487 [mEh]       3.26420066 [kcal/mol]      13.65741557 [kJ/mol]
      Exch12(S^2)                  -4.03881608 [mEh]      -2.53439536 [kcal/mol]     -10.60391017 [kJ/mol]

    Induction                     -27.60822885 [mEh]     -17.32442516 [kcal/mol]     -72.48539487 [kJ/mol]
      Ind20,r                     -85.16919625 [mEh]     -53.44447752 [kcal/mol]    -223.61169396 [kJ/mol]
      Ind22                        -5.57445309 [mEh]      -3.49802213 [kcal/mol]     -14.63572458 [kJ/mol]
      Exch-Ind20,r                 67.60500192 [mEh]      42.42277918 [kcal/mol]     177.49690808 [kJ/mol]
      Exch-Ind22                    4.42484993 [mEh]       2.77663525 [kcal/mol]      11.61744189 [kJ/mol]
      delta HF,r (2)               -8.89443135 [mEh]      -5.58133994 [kcal/mol]     -23.35232630 [kJ/mol]

    Dispersion                    -37.89582295 [mEh]     -23.77998792 [kcal/mol]     -99.49546946 [kJ/mol]
      Disp20                      -55.61070592 [mEh]     -34.89624481 [kcal/mol]    -146.00588829 [kJ/mol]
      Disp21                       13.89276268 [mEh]       8.71784020 [kcal/mol]      36.47544338 [kJ/mol]
      Disp22 (SDQ)                  0.47029073 [mEh]       0.29511189 [kcal/mol]       1.23474813 [kJ/mol]
      Disp22 (T)                   -8.10604907 [mEh]      -5.08662259 [kcal/mol]     -21.28242891 [kJ/mol]
      Est. Disp22 (T)              -8.53786264 [mEh]      -5.35758969 [kcal/mol]     -22.41615528 [kJ/mol]
      Exch-Disp20                  11.88969221 [mEh]       7.46089450 [kcal/mol]      31.21638259 [kJ/mol]

  Total HF                         97.08621540 [mEh]      60.92251994 [kcal/mol]     254.89982342 [kJ/mol]
  Total SAPT0                      53.36520169 [mEh]      33.48716963 [kcal/mol]     140.11031773 [kJ/mol]
  Total SAPT2                      52.03896677 [mEh]      32.65494465 [kcal/mol]     136.62828843 [kJ/mol]
  Total SAPT2+                     57.86415753 [mEh]      36.31030704 [kcal/mol]     151.92232466 [kJ/mol]

  Special recipe for scaled SAPT0 (see Manual):
    Electrostatics sSAPT0         -67.12941189 [mEh]     -42.12434193 [kcal/mol]    -176.24824664 [kJ/mol]
    Exchange sSAPT0               190.67425299 [mEh]     119.64990015 [kcal/mol]     500.61518225 [kJ/mol]
    Induction sSAPT0              -16.84488718 [mEh]     -10.57032629 [kcal/mol]     -44.22624521 [kJ/mol]
    Dispersion sSAPT0             -42.03024545 [mEh]     -26.37437720 [kcal/mol]    -110.35039422 [kJ/mol]
  Total sSAPT0                     64.66970846 [mEh]      40.58085473 [kcal/mol]     169.79029617 [kJ/mol]
  --------------------------------------------------------------------------------------------------------

*** Psi4 exiting successfully. Buy a developer a beer!
