                               Psi4 1.3.2 release

  ==> Input File <==

--------------------------------------------------------------------------
#psi4
#
memory 32 gb

molecule  {
0 1
  C        0.0000000    -1.3936580     1.0640200
  C        1.2077370    -0.6968160     1.0627950
  C        1.2077370     0.6968160     1.0627950
  C        0.0000000     1.3936580     1.0640200
  C       -1.2077370     0.6968160     1.0627950
  C       -1.2077370    -0.6968160     1.0627950
  H        0.0000000    -2.4753200     1.0692940
  H        2.1443140    -1.2373140     1.0618960
  H        2.1443140     1.2373140     1.0618960
  H        0.0000000     2.4753200     1.0692940
  H       -2.1443140     1.2373140     1.0618960
  H       -2.1443140    -1.2373140     1.0618960
--
0 1
  S        0.0000000     0.0000000    -2.6908080
  H        0.0000000     0.9544370    -1.7547400
  H        0.0000000    -0.9544370    -1.7547400
units angstrom
no_reorient  #important for SAPT in psi4, default
symmetry c1  #important for SAPT in psi4, default
}

set {
basis aug-cc-pVDZ
scf_type DF
freeze_core True
}
energy('sapt2+')
--------------------------------------------------------------------------

  //              Dimer HF             //
    Molecular point group: c1
  Charge       = 0
  Multiplicity = 1
  Basis Set: AUG-CC-PVDZ
    Blend: AUG-CC-PVDZ
  Basis Set: (AUG-CC-PVDZ AUX)
    Blend: AUG-CC-PVDZ-JKFIT
  @DF-RHF Final Energy:  -629.42522570735184
    Total Energy =                       -629.4252257073518422
  //            Monomer A HF           //
    Molecular point group: c1
  Multiplicity = 1
  Basis Set: AUG-CC-PVDZ
    Blend: AUG-CC-PVDZ
  Basis Set: (AUG-CC-PVDZ AUX)
    Blend: AUG-CC-PVDZ-JKFIT
  @DF-RHF Final Energy:  -230.72856877275737
    Total Energy =                       -230.7285687727573418
  //            Monomer B HF           //
    Molecular point group: c1

    Geometry (in Angstrom), charge = 0, multiplicity = 1:

       Center              X                  Y                   Z               Mass
    ------------   -----------------  -----------------  -----------------  -----------------
      Gh(C)           0.000000000000    -1.393658000000     1.122759518766    12.000000000000
      Gh(C)           1.207737000000    -0.696816000000     1.121534518766    12.000000000000
      Gh(C)           1.207737000000     0.696816000000     1.121534518766    12.000000000000
      Gh(C)           0.000000000000     1.393658000000     1.122759518766    12.000000000000
      Gh(C)          -1.207737000000     0.696816000000     1.121534518766    12.000000000000
      Gh(C)          -1.207737000000    -0.696816000000     1.121534518766    12.000000000000
      Gh(H)           0.000000000000    -2.475320000000     1.128033518766     1.007825032230
      Gh(H)           2.144314000000    -1.237314000000     1.120635518766     1.007825032230
      Gh(H)           2.144314000000     1.237314000000     1.120635518766     1.007825032230
      Gh(H)           0.000000000000     2.475320000000     1.128033518766     1.007825032230
      Gh(H)          -2.144314000000     1.237314000000     1.120635518766     1.007825032230
      Gh(H)          -2.144314000000    -1.237314000000     1.120635518766     1.007825032230
         S            0.000000000000     0.000000000000    -2.632068481234    31.972071174400
         H            0.000000000000     0.954437000000    -1.696000481234     1.007825032230
         H            0.000000000000    -0.954437000000    -1.696000481234     1.007825032230

  Charge       = 0
  Multiplicity = 1
  Basis Set: AUG-CC-PVDZ
    Blend: AUG-CC-PVDZ
  Basis Set: (AUG-CC-PVDZ AUX)
    Blend: AUG-CC-PVDZ-JKFIT

    Orbital Energies [Eh]
    ---------------------

    Doubly Occupied:

       1A    -91.971187     2A     -8.973148     3A     -6.655212
       4A     -6.654206     5A     -6.651712     6A     -0.985198
       7A     -0.587587     8A     -0.503765     9A     -0.384856

  @DF-RHF Final Energy:  -398.69801736005439

   => Energetics <=

    Nuclear Repulsion Energy =             12.9440448015702270
    One-Electron Energy =                -576.5503801102539683
    Two-Electron Energy =                 164.9083179486293034
    Total Energy =                       -398.6980173600543935

  Dipole Moment: [D]
     X:    -0.0000      Y:    -0.0000      Z:     1.1251     Total:     1.1251

    SAPT Results
  --------------------------------------------------------------------------------------------------------
    Electrostatics                 -4.23795873 [mEh]      -2.65935925 [kcal/mol]     -11.12675912 [kJ/mol]
      Elst10,r                     -4.46163914 [mEh]      -2.79972083 [kcal/mol]     -11.71403195 [kJ/mol]
      Elst12,r                      0.22368041 [mEh]       0.14036158 [kcal/mol]       0.58727283 [kJ/mol]

    Exchange                        7.79848296 [mEh]       4.89362194 [kcal/mol]      20.47491419 [kJ/mol]
      Exch10                        7.27064603 [mEh]       4.56239927 [kcal/mol]      19.08907853 [kJ/mol]
      Exch10(S^2)                   7.26137032 [mEh]       4.55657867 [kcal/mol]      19.06472514 [kJ/mol]
      Exch11(S^2)                   0.42070103 [mEh]       0.26399388 [kcal/mol]       1.10455040 [kJ/mol]
      Exch12(S^2)                   0.10713589 [mEh]       0.06722879 [kcal/mol]       0.28128525 [kJ/mol]

    Induction                      -1.49183536 [mEh]      -0.93614082 [kcal/mol]      -3.91681321 [kJ/mol]
      Ind20,r                      -2.16997576 [mEh]      -1.36168035 [kcal/mol]      -5.69727058 [kJ/mol]
      Ind22                        -0.15900263 [mEh]      -0.09977566 [kcal/mol]      -0.41746134 [kJ/mol]
      Exch-Ind20,r                  1.57967118 [mEh]       0.99125863 [kcal/mol]       4.14742611 [kJ/mol]
      Exch-Ind22                    0.11574870 [mEh]       0.07263340 [kcal/mol]       0.30389817 [kJ/mol]
      delta HF,r (2)               -0.85827685 [mEh]      -0.53857685 [kcal/mol]      -2.25340556 [kJ/mol]

    Dispersion                     -6.50616645 [mEh]      -4.08268108 [kcal/mol]     -17.08193765 [kJ/mol]
      Disp20                       -8.04953149 [mEh]      -5.05115727 [kcal/mol]     -21.13404200 [kJ/mol]
      Disp21                        1.86555125 [mEh]       1.17065108 [kcal/mol]       4.89800412 [kJ/mol]
      Disp22 (SDQ)                  0.20439645 [mEh]       0.12826071 [kcal/mol]       0.53664282 [kJ/mol]
      Disp22 (T)                   -1.31522713 [mEh]      -0.82531748 [kcal/mol]      -3.45312835 [kJ/mol]
      Est. Disp22 (T)              -1.40225127 [mEh]      -0.87992595 [kcal/mol]      -3.68161019 [kJ/mol]
      Exch-Disp20                   0.87566861 [mEh]       0.54949035 [kcal/mol]       2.29906761 [kJ/mol]

  Total HF                          1.36042546 [mEh]       0.85367986 [kcal/mol]       3.57179655 [kJ/mol]
  Total SAPT0                      -5.81343742 [mEh]      -3.64798706 [kcal/mol]     -15.26317784 [kJ/mol]
  Total SAPT2                      -5.10517402 [mEh]      -3.20354506 [kcal/mol]     -13.40363253 [kJ/mol]
  Total SAPT2+                     -4.43747758 [mEh]      -2.78455922 [kcal/mol]     -11.65059579 [kJ/mol]

  Special recipe for scaled SAPT0 (see Manual):
    Electrostatics sSAPT0          -4.46163914 [mEh]      -2.79972083 [kcal/mol]     -11.71403195 [kJ/mol]
    Exchange sSAPT0                 7.27064603 [mEh]       4.56239927 [kcal/mol]      19.08907853 [kJ/mol]
    Induction sSAPT0               -1.44252005 [mEh]      -0.90519500 [kcal/mol]      -3.78733588 [kJ/mol]
    Dispersion sSAPT0              -7.17050284 [mEh]      -4.49955846 [kcal/mol]     -18.82615261 [kJ/mol]
  Total sSAPT0                     -5.80401600 [mEh]      -3.64207503 [kcal/mol]     -15.23844191 [kJ/mol]
  --------------------------------------------------------------------------------------------------------

*** Psi4 exiting successfully. Buy a developer a beer!
