                               Psi4 1.3.2 release

  ==> Input File <==

--------------------------------------------------------------------------
#psi4
#
memory 32 gb

molecule  {
0 1
  C        1.9047060    -0.1798760     0.0000010
  H        2.9930900    -0.2590830    -0.0000010
  O        1.1798480    -1.1602640     0.0000000
  O        1.5170880     1.0770050     0.0000000
  H        0.5236580     1.1098660     0.0000010
--
0 1
  C       -1.3653395     0.1632028    -0.0000010
  H       -2.4537295     0.2423448     0.0000000
  O       -0.6405405     1.1436348     0.0000000
  O       -0.9776395    -1.0936522     0.0000000
  H        0.0158065    -1.1264522     0.0000010
units angstrom
no_reorient  #important for SAPT in psi4, default
symmetry c1  #important for SAPT in psi4, default
}

set {
basis aug-cc-pVDZ
scf_type DF
freeze_core True
}
energy('sapt2+')
--------------------------------------------------------------------------

  //              Dimer HF             //
    Molecular point group: c1
  Charge       = 0
  Multiplicity = 1
  Basis Set: AUG-CC-PVDZ
    Blend: AUG-CC-PVDZ
  Basis Set: (AUG-CC-PVDZ AUX)
    Blend: AUG-CC-PVDZ-JKFIT
  @DF-RHF Final Energy:  -377.54933342929581
    Total Energy =                       -377.5493334292958139
  //            Monomer A HF           //
    Molecular point group: c1
  Multiplicity = 1
  Basis Set: AUG-CC-PVDZ
    Blend: AUG-CC-PVDZ
  Basis Set: (AUG-CC-PVDZ AUX)
    Blend: AUG-CC-PVDZ-JKFIT
  @DF-RHF Final Energy:  -188.79553818924782
    Total Energy =                       -188.7955381892478215
  //            Monomer B HF           //
    Molecular point group: c1

    Geometry (in Angstrom), charge = 0, multiplicity = 1:

       Center              X                  Y                   Z               Mass
    ------------   -----------------  -----------------  -----------------  -----------------
      Gh(C)           1.635017744043    -0.171551809567     0.000000989047    12.000000000000
      Gh(H)           2.723401744043    -0.250758809567    -0.000001010953     1.007825032230
      Gh(O)           0.910159744043    -1.151939809567    -0.000000010953    15.994914619570
      Gh(O)           1.247399744043     1.085329190433    -0.000000010953    15.994914619570
      Gh(H)           0.253969744043     1.118190190433     0.000000989047     1.007825032230
         C           -1.635027755957     0.171526990433    -0.000001010953    12.000000000000
         H           -2.723417755957     0.250668990433    -0.000000010953     1.007825032230
         O           -0.910228755957     1.151958990433    -0.000000010953    15.994914619570
         O           -1.247327755957    -1.085328009567    -0.000000010953    15.994914619570
         H           -0.253881755957    -1.118128009567     0.000000989047     1.007825032230

  Charge       = 0
  Multiplicity = 1
  Basis Set: AUG-CC-PVDZ
    Blend: AUG-CC-PVDZ
  Basis Set: (AUG-CC-PVDZ AUX)
    Blend: AUG-CC-PVDZ-JKFIT

    Orbital Energies [Eh]
    ---------------------

    Doubly Occupied:

       1A    -20.646581     2A    -20.572516     3A    -11.406651
       4A     -1.486842     5A     -1.373846     6A     -0.903971
       7A     -0.732361     8A     -0.713810     9A     -0.643793
      10A     -0.597914    11A     -0.490251    12A     -0.470050

  @DF-RHF Final Energy:  -188.79553718030860

   => Energetics <=

    Nuclear Repulsion Energy =             70.1580372184758971
    One-Electron Energy =                -397.8299794019287674
    Two-Electron Energy =                 138.8764050031442707
    Total Energy =                       -188.7955371803085995

  Dipole Moment: [D]
     X:    -0.4862      Y:    -1.9918      Z:    -0.0000     Total:     2.0503

    SAPT Results
  --------------------------------------------------------------------------------------------------------
    Electrostatics               -148.00881212 [mEh]     -92.87693181 [kcal/mol]    -388.59708269 [kJ/mol]
      Elst10,r                   -146.91149579 [mEh]     -92.18835542 [kcal/mol]    -385.71607907 [kJ/mol]
      Elst12,r                     -1.09731633 [mEh]      -0.68857639 [kcal/mol]      -2.88100362 [kJ/mol]

    Exchange                      350.59126265 [mEh]     219.99933873 [kcal/mol]     920.47723326 [kJ/mol]
      Exch10                      325.19731134 [mEh]     204.06439372 [kcal/mol]     853.80542330 [kJ/mol]
      Exch10(S^2)                 301.48732564 [mEh]     189.18615306 [kcal/mol]     791.55486441 [kJ/mol]
      Exch11(S^2)                  -3.31704182 [mEh]      -2.08147517 [kcal/mol]      -8.70889210 [kJ/mol]
      Exch12(S^2)                  28.71099312 [mEh]      18.01642019 [kcal/mol]      75.38070206 [kJ/mol]

    Induction                    -149.56067780 [mEh]     -93.85074223 [kcal/mol]    -392.67150547 [kJ/mol]
      Ind20,r                    -192.21674143 [mEh]    -120.61782627 [kcal/mol]    -504.66498511 [kJ/mol]
      Ind22                       -29.60539318 [mEh]     -18.57766470 [kcal/mol]     -77.72894909 [kJ/mol]
      Exch-Ind20,r                107.70351279 [mEh]      67.58497463 [kcal/mol]     282.77553387 [kJ/mol]
      Exch-Ind22                   16.58859067 [mEh]      10.40949780 [kcal/mol]      43.55333880 [kJ/mol]
      delta HF,r (2)              -52.03064664 [mEh]     -32.64972370 [kcal/mol]    -136.60644394 [kJ/mol]

    Dispersion                    -41.43209905 [mEh]     -25.99903467 [kcal/mol]    -108.77996108 [kJ/mol]
      Disp20                      -50.32656169 [mEh]     -31.58039424 [kcal/mol]    -132.13236951 [kJ/mol]
      Disp21                        8.13802918 [mEh]       5.10669041 [kcal/mol]      21.36639266 [kJ/mol]
      Disp22 (SDQ)                 -3.69785183 [mEh]      -2.32043705 [kcal/mol]      -9.70870863 [kJ/mol]
      Disp22 (T)                   -7.34087622 [mEh]      -4.60646937 [kcal/mol]     -19.27346785 [kJ/mol]
      Est. Disp22 (T)              -7.83248307 [mEh]      -4.91495733 [kcal/mol]     -20.56418147 [kJ/mol]
      Exch-Disp20                  12.28676836 [mEh]       7.71006355 [kcal/mol]      32.25890588 [kJ/mol]

  Total HF                         41.74194026 [mEh]      26.19346297 [kcal/mol]     109.59344906 [kJ/mol]
  Total SAPT0                       3.70214693 [mEh]       2.32313227 [kcal/mol]       9.71998542 [kJ/mol]
  Total SAPT2                      14.98197939 [mEh]       9.40133400 [kcal/mol]      39.33518147 [kJ/mol]
  Total SAPT2+                     11.58967367 [mEh]       7.27263003 [kcal/mol]      30.42868403 [kJ/mol]

  Special recipe for scaled SAPT0 (see Manual):
    Electrostatics sSAPT0        -146.91149579 [mEh]     -92.18835542 [kcal/mol]    -385.71607907 [kJ/mol]
    Exchange sSAPT0               325.19731134 [mEh]     204.06439372 [kcal/mol]     853.80542330 [kJ/mol]
    Induction sSAPT0             -109.08261208 [mEh]     -68.45037251 [kcal/mol]    -286.39635857 [kJ/mol]
    Dispersion sSAPT0             -34.90702476 [mEh]     -21.90448874 [kcal/mol]     -91.64838088 [kJ/mol]
  Total sSAPT0                     34.29617871 [mEh]      21.52117705 [kcal/mol]      90.04460479 [kJ/mol]
  --------------------------------------------------------------------------------------------------------

*** Psi4 exiting successfully. Buy a developer a beer!
