                               Psi4 1.3.2 release

  ==> Input File <==

--------------------------------------------------------------------------
#psi4
#
memory 32 gb

molecule  {
0 1
  C       -1.9644470     0.1609890    -0.0000020
  H       -3.0589320     0.1627090    -0.0000040
  O       -1.3160380     1.1929960    -0.0000020
  O       -1.4968300    -1.0660630     0.0000020
  H       -0.4778920    -1.0649310     0.0000090
--
0 1
  C        2.0025490    -0.1829050    -0.0000030
  H        3.0843650    -0.3051300    -0.0000050
  N        1.1847580    -1.1802720    -0.0000010
  H        1.6953530    -2.0537770    -0.0000010
  N        1.5876990     1.0939190     0.0000020
  H        0.5916820     1.2924520     0.0000010
  H        2.2546190     1.8385950     0.0000040
units angstrom
no_reorient  #important for SAPT in psi4, default
symmetry c1  #important for SAPT in psi4, default
}

set {
basis aug-cc-pVDZ
scf_type DF
freeze_core True
}
energy('sapt2+')
--------------------------------------------------------------------------

  //              Dimer HF             //
    Molecular point group: c1
  Charge       = 0
  Multiplicity = 1
  Basis Set: AUG-CC-PVDZ
    Blend: AUG-CC-PVDZ
  Basis Set: (AUG-CC-PVDZ AUX)
    Blend: AUG-CC-PVDZ-JKFIT
  @DF-RHF Final Energy:  -337.92735635121176
    Total Energy =                       -337.9273563512117562
  //            Monomer A HF           //
    Molecular point group: c1
  Multiplicity = 1
  Basis Set: AUG-CC-PVDZ
    Blend: AUG-CC-PVDZ
  Basis Set: (AUG-CC-PVDZ AUX)
    Blend: AUG-CC-PVDZ-JKFIT
  @DF-RHF Final Energy:  -188.79210905860285
    Total Energy =                       -188.7921090586028470
  //            Monomer B HF           //
    Molecular point group: c1

    Geometry (in Angstrom), charge = 0, multiplicity = 1:

       Center              X                  Y                   Z               Mass
    ------------   -----------------  -----------------  -----------------  -----------------
      Gh(C)          -1.946786025246     0.156247004552    -0.000001533938    12.000000000000
      Gh(H)          -3.041271025246     0.157967004552    -0.000003533938     1.007825032230
      Gh(O)          -1.298377025246     1.188254004552    -0.000001533938    15.994914619570
      Gh(O)          -1.479169025246    -1.070804995448     0.000002466062    15.994914619570
      Gh(H)          -0.460231025246    -1.069672995448     0.000009466062     1.007825032230
         C            2.020209974754    -0.187646995448    -0.000002533938    12.000000000000
         H            3.102025974754    -0.309871995448    -0.000004533938     1.007825032230
         N            1.202418974754    -1.185013995448    -0.000000533938    14.003074004430
         H            1.713013974754    -2.058518995448    -0.000000533938     1.007825032230
         N            1.605359974754     1.089177004552     0.000002466062    14.003074004430
         H            0.609342974754     1.287710004552     0.000001466062     1.007825032230
         H            2.272279974754     1.833853004552     0.000004466062     1.007825032230

  Charge       = 0
  Multiplicity = 1
  Basis Set: AUG-CC-PVDZ
    Blend: AUG-CC-PVDZ
  Basis Set: (AUG-CC-PVDZ AUX)
    Blend: AUG-CC-PVDZ-JKFIT

    Orbital Energies [Eh]
    ---------------------

    Doubly Occupied:

       1A    -15.588166     2A    -15.527533     3A    -11.322281
       4A     -1.263853     5A     -1.138702     6A     -0.831991
       7A     -0.750070     8A     -0.640876     9A     -0.618631
      10A     -0.530069    11A     -0.417139    12A     -0.357676

  @DF-RHF Final Energy:  -149.10911461949919

   => Energetics <=

    Nuclear Repulsion Energy =             72.3341927987140139
    One-Electron Energy =                -344.9126427658108014
    Two-Electron Energy =                 123.4693353475975925
    Total Energy =                       -149.1091146194991950

  Dipole Moment: [D]
     X:     2.3282      Y:     2.2577      Z:    -0.0000     Total:     3.2431

    SAPT Results
  --------------------------------------------------------------------------------------------------------
    Electrostatics                -55.32439707 [mEh]     -34.71658329 [kcal/mol]    -145.25418449 [kJ/mol]
      Elst10,r                    -56.10296471 [mEh]     -35.20514186 [kcal/mol]    -147.29831356 [kJ/mol]
      Elst12,r                      0.77856765 [mEh]       0.48855857 [kcal/mol]       2.04412907 [kJ/mol]

    Exchange                       66.11968176 [mEh]      41.49072670 [kcal/mol]     173.59720053 [kJ/mol]
      Exch10                       57.89664846 [mEh]      36.33069541 [kcal/mol]     152.00762959 [kJ/mol]
      Exch10(S^2)                  56.52236031 [mEh]      35.46831657 [kcal/mol]     148.39943655 [kJ/mol]
      Exch11(S^2)                   0.18859243 [mEh]       0.11834353 [kcal/mol]       0.49514935 [kJ/mol]
      Exch12(S^2)                   8.03444087 [mEh]       5.04168776 [kcal/mol]      21.09442160 [kJ/mol]

    Induction                     -30.01164287 [mEh]     -18.83259022 [kcal/mol]     -78.79555749 [kJ/mol]
      Ind20,r                     -32.73910729 [mEh]     -20.54409999 [kcal/mol]     -85.95651435 [kJ/mol]
      Ind22                        -4.31186925 [mEh]      -2.70573880 [kcal/mol]     -11.32081116 [kJ/mol]
      Exch-Ind20,r                 16.90597356 [mEh]      10.60865857 [kcal/mol]      44.38662747 [kJ/mol]
      Exch-Ind22                    2.22658324 [mEh]       1.39720208 [kcal/mol]       5.84589349 [kJ/mol]
      delta HF,r (2)              -12.09322313 [mEh]      -7.58861208 [kcal/mol]     -31.75075294 [kJ/mol]

    Dispersion                    -14.77504448 [mEh]      -9.27148039 [kcal/mol]     -38.79187393 [kJ/mol]
      Disp20                      -16.24074383 [mEh]     -10.19122062 [kcal/mol]     -42.64006706 [kJ/mol]
      Disp21                        1.60485238 [mEh]       1.00706008 [kcal/mol]       4.21353935 [kJ/mol]
      Disp22 (SDQ)                 -0.75775620 [mEh]      -0.47549919 [kcal/mol]      -1.98948862 [kJ/mol]
      Disp22 (T)                   -2.54264707 [mEh]      -1.59553512 [kcal/mol]      -6.67571896 [kJ/mol]
      Est. Disp22 (T)              -2.78723441 [mEh]      -1.74901600 [kcal/mol]      -7.31788293 [kJ/mol]
      Exch-Disp20                   3.40583758 [mEh]       2.13719535 [kcal/mol]       8.94202533 [kJ/mol]

  Total HF                        -26.13267311 [mEh]     -16.39849995 [kcal/mol]     -68.61132380 [kJ/mol]
  Total SAPT0                     -38.96757937 [mEh]     -24.45252522 [kcal/mol]    -102.30936553 [kJ/mol]
  Total SAPT2                     -32.05126444 [mEh]     -20.11247208 [kcal/mol]     -84.15058318 [kJ/mol]
  Total SAPT2+                    -33.99140266 [mEh]     -21.32992719 [kcal/mol]     -89.24441538 [kJ/mol]

  Special recipe for scaled SAPT0 (see Manual):
    Electrostatics sSAPT0         -56.10296471 [mEh]     -35.20514186 [kcal/mol]    -147.29831356 [kJ/mol]
    Exchange sSAPT0                57.89664846 [mEh]      36.33069541 [kcal/mol]     152.00762959 [kJ/mol]
    Induction sSAPT0              -26.66297211 [mEh]     -16.73126760 [kcal/mol]     -70.00362363 [kJ/mol]
    Dispersion sSAPT0             -12.58038774 [mEh]      -7.89431249 [kcal/mol]     -33.02980347 [kJ/mol]
  Total sSAPT0                    -37.44967611 [mEh]     -23.50002655 [kcal/mol]     -98.32411108 [kJ/mol]
  --------------------------------------------------------------------------------------------------------

*** Psi4 exiting successfully. Buy a developer a beer!
