                               Psi4 1.3.2 release

  ==> Input File <==

--------------------------------------------------------------------------
#psi4
#
memory 32 gb

molecule  {
0 1
  C       -1.9644470     0.1609890    -0.0000020
  H       -3.0589320     0.1627090    -0.0000040
  O       -1.3160380     1.1929960    -0.0000020
  O       -1.4968300    -1.0660630     0.0000020
  H       -0.4778920    -1.0649310     0.0000090
--
0 1
  C        1.8629159    -0.1775729    -0.0000030
  H        2.9447319    -0.2997979    -0.0000050
  N        1.0451249    -1.1749398    -0.0000010
  H        1.5557199    -2.0484449    -0.0000010
  N        1.4480659     1.0992512     0.0000020
  H        0.4520489     1.2977842     0.0000010
  H        2.1149859     1.8439272     0.0000040
units angstrom
no_reorient  #important for SAPT in psi4, default
symmetry c1  #important for SAPT in psi4, default
}

set {
basis aug-cc-pVDZ
scf_type DF
freeze_core True
}
energy('sapt2+')
--------------------------------------------------------------------------

  //              Dimer HF             //
    Molecular point group: c1
  Charge       = 0
  Multiplicity = 1
  Basis Set: AUG-CC-PVDZ
    Blend: AUG-CC-PVDZ
  Basis Set: (AUG-CC-PVDZ AUX)
    Blend: AUG-CC-PVDZ-JKFIT
  @DF-RHF Final Energy:  -337.92414749451723
    Total Energy =                       -337.9241474945172286
  //            Monomer A HF           //
    Molecular point group: c1
  Multiplicity = 1
  Basis Set: AUG-CC-PVDZ
    Blend: AUG-CC-PVDZ
  Basis Set: (AUG-CC-PVDZ AUX)
    Blend: AUG-CC-PVDZ-JKFIT
  @DF-RHF Final Energy:  -188.79224576563539
    Total Energy =                       -188.7922457656353856
  //            Monomer B HF           //
    Molecular point group: c1

    Geometry (in Angstrom), charge = 0, multiplicity = 1:

       Center              X                  Y                   Z               Mass
    ------------   -----------------  -----------------  -----------------  -----------------
      Gh(C)          -1.878495426813     0.153639191967    -0.000001533938    12.000000000000
      Gh(H)          -2.972980426813     0.155359191967    -0.000003533938     1.007825032230
      Gh(O)          -1.230086426813     1.185646191967    -0.000001533938    15.994914619570
      Gh(O)          -1.410878426813    -1.073412808033     0.000002466062    15.994914619570
      Gh(H)          -0.391940426813    -1.072280808033     0.000009466062     1.007825032230
         C            1.948867473187    -0.184922708033    -0.000002533938    12.000000000000
         H            3.030683473187    -0.307147708033    -0.000004533938     1.007825032230
         N            1.131076473187    -1.182289608033    -0.000000533938    14.003074004430
         H            1.641671473187    -2.055794708033    -0.000000533938     1.007825032230
         N            1.534017473187     1.091901391967     0.000002466062    14.003074004430
         H            0.538000473187     1.290434391967     0.000001466062     1.007825032230
         H            2.200937473187     1.836577391967     0.000004466062     1.007825032230

  Charge       = 0
  Multiplicity = 1
  Basis Set: AUG-CC-PVDZ
    Blend: AUG-CC-PVDZ
  Basis Set: (AUG-CC-PVDZ AUX)
    Blend: AUG-CC-PVDZ-JKFIT

    Orbital Energies [Eh]
    ---------------------

    Doubly Occupied:

       1A    -15.588140     2A    -15.527438     3A    -11.322245
       4A     -1.263846     5A     -1.138687     6A     -0.831985
       7A     -0.750073     8A     -0.640884     9A     -0.618639
      10A     -0.530064    11A     -0.417131    12A     -0.357670

  @DF-RHF Final Energy:  -149.10920763761126

   => Energetics <=

    Nuclear Repulsion Energy =             72.3341921335351117
    One-Electron Energy =                -344.9131987821410803
    Two-Electron Energy =                 123.4697990109947057
    Total Energy =                       -149.1092076376112630

  Dipole Moment: [D]
     X:     2.3279      Y:     2.2579      Z:    -0.0000     Total:     3.2430

    SAPT Results
  --------------------------------------------------------------------------------------------------------
    Electrostatics                -71.76264154 [mEh]     -45.03173743 [kcal/mol]    -188.41278940 [kJ/mol]
      Elst10,r                    -72.14322737 [mEh]     -45.27055864 [kcal/mol]    -189.41201736 [kJ/mol]
      Elst12,r                      0.38058583 [mEh]       0.23882121 [kcal/mol]       0.99922796 [kJ/mol]

    Exchange                      101.75459285 [mEh]      63.85197102 [kcal/mol]     267.15664673 [kJ/mol]
      Exch10                       90.96106808 [mEh]      57.07893196 [kcal/mol]     238.81825133 [kJ/mol]
      Exch10(S^2)                  87.86145534 [mEh]      55.13389561 [kcal/mol]     230.68021922 [kJ/mol]
      Exch11(S^2)                   0.25128471 [mEh]       0.15768354 [kcal/mol]       0.65974791 [kJ/mol]
      Exch12(S^2)                  10.54224007 [mEh]       6.61535552 [kcal/mol]      27.67864748 [kJ/mol]

    Induction                     -44.55826044 [mEh]     -27.96073056 [kcal/mol]    -116.98769666 [kJ/mol]
      Ind20,r                     -50.16084497 [mEh]     -31.47640543 [kcal/mol]    -131.69728034 [kJ/mol]
      Ind22                        -6.54419992 [mEh]      -4.10654745 [kcal/mol]     -17.18179453 [kJ/mol]
      Exch-Ind20,r                 26.81094562 [mEh]      16.82412237 [kcal/mol]      70.39212801 [kJ/mol]
      Exch-Ind22                    3.49787146 [mEh]       2.19494748 [kcal/mol]       9.18366026 [kJ/mol]
      delta HF,r (2)              -18.16203262 [mEh]     -11.39684753 [kcal/mol]     -47.68441007 [kJ/mol]

    Dispersion                    -19.22188792 [mEh]     -12.06191678 [kcal/mol]     -50.46705979 [kJ/mol]
      Disp20                      -21.91835450 [mEh]     -13.75397510 [kcal/mol]     -57.54663182 [kJ/mol]
      Disp21                        2.44025718 [mEh]       1.53128450 [kcal/mol]       6.40689435 [kJ/mol]
      Disp22 (SDQ)                 -1.01149322 [mEh]      -0.63472158 [kcal/mol]      -2.65567507 [kJ/mol]
      Disp22 (T)                   -3.34441440 [mEh]      -2.09865172 [kcal/mol]      -8.78075879 [kJ/mol]
      Est. Disp22 (T)              -3.63217974 [mEh]      -2.27922720 [kcal/mol]      -9.53628658 [kJ/mol]
      Exch-Disp20                   4.89988235 [mEh]       3.07472259 [kcal/mol]      12.86463933 [kJ/mol]

  Total HF                        -22.69409127 [mEh]     -14.24075727 [kcal/mol]     -59.58332842 [kJ/mol]
  Total SAPT0                     -39.71256343 [mEh]     -24.92000978 [kcal/mol]    -104.26532091 [kJ/mol]
  Total SAPT2                     -31.58478128 [mEh]     -19.81974948 [kcal/mol]     -82.92583182 [kJ/mol]
  Total SAPT2+                    -33.78819705 [mEh]     -21.20241375 [kcal/mol]     -88.71089913 [kJ/mol]

  Special recipe for scaled SAPT0 (see Manual):
    Electrostatics sSAPT0         -72.14322737 [mEh]     -45.27055864 [kcal/mol]    -189.41201736 [kJ/mol]
    Exchange sSAPT0                90.96106808 [mEh]      57.07893196 [kcal/mol]     238.81825133 [kJ/mol]
    Induction sSAPT0              -38.57310794 [mEh]     -24.20499066 [kcal/mol]    -101.27368094 [kJ/mol]
    Dispersion sSAPT0             -16.48138211 [mEh]     -10.34222341 [kcal/mol]     -43.27186276 [kJ/mol]
  Total sSAPT0                    -36.23664934 [mEh]     -22.73884076 [kcal/mol]     -95.13930973 [kJ/mol]
  --------------------------------------------------------------------------------------------------------

*** Psi4 exiting successfully. Buy a developer a beer!
