                               Psi4 1.3.2 release

  ==> Input File <==

--------------------------------------------------------------------------
#psi4
#
memory 32 gb

molecule  {
0 1
  C        2.1022740    -0.1999910     0.0000010
  H        3.1931760    -0.2048250     0.0000000
  N        1.3929100    -1.2773340     0.0000000
  H        2.0119970    -2.0793170    -0.0000010
  N        1.5658380     1.0343930     0.0000000
  H        0.5512430     1.1716950     0.0000000
  H        2.1722770     1.8295020    -0.0000010
--
0 1
  C       -2.3981488     0.2242851     0.0000000
  H       -3.4890508     0.2291191     0.0000000
  N       -1.6887848     1.3016281     0.0000000
  H       -2.3078718     2.1036111     0.0000000
  N       -1.8617128    -1.0100989     0.0000000
  H       -0.8471178    -1.1474009     0.0000000
  H       -2.4681518    -1.8052079     0.0000000
units angstrom
no_reorient  #important for SAPT in psi4, default
symmetry c1  #important for SAPT in psi4, default
}

set {
basis aug-cc-pVDZ
scf_type DF
freeze_core True
}
energy('sapt2+')
--------------------------------------------------------------------------

  //              Dimer HF             //
    Molecular point group: c1
  Charge       = 0
  Multiplicity = 1
  Basis Set: AUG-CC-PVDZ
    Blend: AUG-CC-PVDZ
  Basis Set: (AUG-CC-PVDZ AUX)
    Blend: AUG-CC-PVDZ-JKFIT
  @DF-RHF Final Energy:  -298.23389659097580
    Total Energy =                       -298.2338965909758031
  //            Monomer A HF           //
    Molecular point group: c1
  Multiplicity = 1
  Basis Set: AUG-CC-PVDZ
    Blend: AUG-CC-PVDZ
  Basis Set: (AUG-CC-PVDZ AUX)
    Blend: AUG-CC-PVDZ-JKFIT
  @DF-RHF Final Energy:  -149.10844643802344
    Total Energy =                       -149.1084464380234351
  //            Monomer B HF           //
    Molecular point group: c1

    Geometry (in Angstrom), charge = 0, multiplicity = 1:

       Center              X                  Y                   Z               Mass
    ------------   -----------------  -----------------  -----------------  -----------------
      Gh(C)           2.250211400000    -0.212138050000     0.000000886638    12.000000000000
      Gh(H)           3.341113400000    -0.216972050000    -0.000000113362     1.007825032230
      Gh(N)           1.540847400000    -1.289481050000    -0.000000113362    14.003074004430
      Gh(H)           2.159934400000    -2.091464050000    -0.000001113362     1.007825032230
      Gh(N)           1.713775400000     1.022245950000    -0.000000113362    14.003074004430
      Gh(H)           0.699180400000     1.159547950000    -0.000000113362     1.007825032230
      Gh(H)           2.320214400000     1.817354950000    -0.000001113362     1.007825032230
         C           -2.250211400000     0.212138050000    -0.000000113362    12.000000000000
         H           -3.341113400000     0.216972050000    -0.000000113362     1.007825032230
         N           -1.540847400000     1.289481050000    -0.000000113362    14.003074004430
         H           -2.159934400000     2.091464050000    -0.000000113362     1.007825032230
         N           -1.713775400000    -1.022245950000    -0.000000113362    14.003074004430
         H           -0.699180400000    -1.159547950000    -0.000000113362     1.007825032230
         H           -2.320214400000    -1.817354950000    -0.000000113362     1.007825032230

  Charge       = 0
  Multiplicity = 1
  Basis Set: AUG-CC-PVDZ
    Blend: AUG-CC-PVDZ
  Basis Set: (AUG-CC-PVDZ AUX)
    Blend: AUG-CC-PVDZ-JKFIT

    Orbital Energies [Eh]
    ---------------------

    Doubly Occupied:

       1A    -15.589123     2A    -15.528788     3A    -11.323191
       4A     -1.261911     5A     -1.139674     6A     -0.831352
       7A     -0.746759     8A     -0.639963     9A     -0.616300
      10A     -0.529264    11A     -0.419345    12A     -0.358291

  @DF-RHF Final Energy:  -149.10844643813869

   => Energetics <=

    Nuclear Repulsion Energy =             72.1807086195704102
    One-Electron Energy =                -344.6103869495182153
    Two-Electron Energy =                 123.3212318918091199
    Total Energy =                       -149.1084464381386852

  Dipole Moment: [D]
     X:    -2.0984      Y:    -2.5209      Z:    -0.0000     Total:     3.2800

    SAPT Results
  --------------------------------------------------------------------------------------------------------
    Electrostatics                -25.35544688 [mEh]     -15.91078313 [kcal/mol]     -66.57071661 [kJ/mol]
      Elst10,r                    -25.41705718 [mEh]     -15.94944418 [kcal/mol]     -66.73247443 [kJ/mol]
      Elst12,r                      0.06161030 [mEh]       0.03866105 [kcal/mol]       0.16175782 [kJ/mol]

    Exchange                       19.13535368 [mEh]      12.00761572 [kcal/mol]      50.23986418 [kJ/mol]
      Exch10                       16.16356515 [mEh]      10.14279026 [kcal/mol]      42.43743446 [kJ/mol]
      Exch10(S^2)                  16.05330049 [mEh]      10.07359814 [kcal/mol]      42.14793462 [kJ/mol]
      Exch11(S^2)                  -0.02099486 [mEh]      -0.01317447 [kcal/mol]      -0.05512199 [kJ/mol]
      Exch12(S^2)                   2.99278339 [mEh]       1.87799993 [kcal/mol]       7.85755171 [kJ/mol]

    Induction                      -8.40178804 [mEh]      -5.27220159 [kcal/mol]     -22.05889146 [kJ/mol]
      Ind20,r                      -8.83577143 [mEh]      -5.54453028 [kcal/mol]     -23.19831469 [kJ/mol]
      Ind22                        -1.16874962 [mEh]      -0.73340146 [kcal/mol]      -3.06855170 [kJ/mol]
      Exch-Ind20,r                  3.90992452 [mEh]       2.45351468 [kcal/mol]      10.26550543 [kJ/mol]
      Exch-Ind22                    0.51718436 [mEh]       0.32453809 [kcal/mol]       1.35786735 [kJ/mol]
      delta HF,r (2)               -2.82437588 [mEh]      -1.77232262 [kcal/mol]      -7.41539785 [kJ/mol]

    Dispersion                     -7.54010341 [mEh]      -4.73148633 [kcal/mol]     -19.79653879 [kJ/mol]
      Disp20                       -7.78572754 [mEh]      -4.88561779 [kcal/mol]     -20.44142484 [kJ/mol]
      Disp21                        0.54637448 [mEh]       0.34285516 [kcal/mol]       1.43450600 [kJ/mol]
      Disp22 (SDQ)                 -0.17855647 [mEh]      -0.11204588 [kcal/mol]      -0.46879995 [kJ/mol]
      Disp22 (T)                   -1.21553424 [mEh]      -0.76275925 [kcal/mol]      -3.19138471 [kJ/mol]
      Est. Disp22 (T)              -1.35298412 [mEh]      -0.84901035 [kcal/mol]      -3.55225931 [kJ/mol]
      Exch-Disp20                   1.23079024 [mEh]       0.77233253 [kcal/mol]       3.23143932 [kJ/mol]

  Total HF                        -17.00371481 [mEh]     -10.66999213 [kcal/mol]     -44.64324709 [kJ/mol]
  Total SAPT0                     -23.55865212 [mEh]     -14.78327739 [kcal/mol]     -61.85323262 [kJ/mol]
  Total SAPT2                     -21.17681854 [mEh]     -13.28865426 [kcal/mol]     -55.59972942 [kJ/mol]
  Total SAPT2+                    -22.16198465 [mEh]     -13.90685533 [kcal/mol]     -58.18628269 [kJ/mol]

  Special recipe for scaled SAPT0 (see Manual):
    Electrostatics sSAPT0         -25.41705718 [mEh]     -15.94944418 [kcal/mol]     -66.73247443 [kJ/mol]
    Exchange sSAPT0                16.16356515 [mEh]      10.14279026 [kcal/mol]      42.43743446 [kJ/mol]
    Induction sSAPT0               -7.66910030 [mEh]      -4.81243309 [kcal/mol]     -20.13522005 [kJ/mol]
    Dispersion sSAPT0              -6.52940107 [mEh]      -4.09726103 [kcal/mol]     -17.14294014 [kJ/mol]
  Total sSAPT0                    -23.45199339 [mEh]     -14.71634803 [kcal/mol]     -61.57320017 [kJ/mol]
  --------------------------------------------------------------------------------------------------------

*** Psi4 exiting successfully. Buy a developer a beer!
