                               Psi4 1.3.2 release

  ==> Input File <==

--------------------------------------------------------------------------
#psi4
#
memory 32 gb

molecule  {
0 1
  C        2.0083120    -0.3372920     0.0000040
  H        3.1030340    -0.4288200    -0.0000030
  O        1.2864570    -1.3299810     0.0000000
  N        1.5810970     0.9343630     0.0000010
  H        0.5827550     1.1459700     0.0000010
  H        2.8256788     1.5995554    -0.0000029
--
0 1
  C       -1.4348012     0.2581684     0.0000011
  H       -2.5295232     0.3496964    -0.0000009
  O       -0.7129462     1.2508574     0.0000001
  N       -1.0075862    -1.0134866     0.0000001
  H       -0.0092442    -1.2250936     0.0000001
  H       -1.6786572    -1.7578026    -0.0000009
units angstrom
no_reorient  #important for SAPT in psi4, default
symmetry c1  #important for SAPT in psi4, default
}

set {
basis aug-cc-pVDZ
scf_type DF
freeze_core True
}
energy('sapt2+')
--------------------------------------------------------------------------

  //              Dimer HF             //
    Molecular point group: c1
  Charge       = 0
  Multiplicity = 1
  Basis Set: AUG-CC-PVDZ
    Blend: AUG-CC-PVDZ
  Basis Set: (AUG-CC-PVDZ AUX)
    Blend: AUG-CC-PVDZ-JKFIT
  @DF-RHF Final Energy:  -337.80386284648262
    Total Energy =                       -337.8038628464826161
  //            Monomer A HF           //
    Molecular point group: c1
  Multiplicity = 1
  Basis Set: AUG-CC-PVDZ
    Blend: AUG-CC-PVDZ
  Basis Set: (AUG-CC-PVDZ AUX)
    Blend: AUG-CC-PVDZ-JKFIT
  @DF-RHF Final Energy:  -168.86765072003351
    Total Energy =                       -168.8676507200335095
  //            Monomer B HF           //
    Molecular point group: c1

    Geometry (in Angstrom), charge = 0, multiplicity = 1:

       Center              X                  Y                   Z               Mass
    ------------   -----------------  -----------------  -----------------  -----------------
      Gh(C)           1.715137455744    -0.296844591913     0.000003205365    12.000000000000
      Gh(H)           2.809859455744    -0.388372591913    -0.000003794635     1.007825032230
      Gh(O)           0.993282455744    -1.289533591913    -0.000000794635    15.994914619570
      Gh(N)           1.287922455744     0.974810408087     0.000000205365    14.003074004430
      Gh(H)           0.289580455744     1.186417408087     0.000000205365     1.007825032230
      Gh(H)           2.532504255744     1.640002808087    -0.000003694635     1.007825032230
         C           -1.727975744256     0.298615808087     0.000000305365    12.000000000000
         H           -2.822697744256     0.390143808087    -0.000001694635     1.007825032230
         O           -1.006120744256     1.291304808087    -0.000000694635    15.994914619570
         N           -1.300760744256    -0.973039191913    -0.000000694635    14.003074004430
         H           -0.302418744256    -1.184646191913    -0.000000694635     1.007825032230
         H           -1.971831744256    -1.717355191913    -0.000001694635     1.007825032230

  Charge       = 0
  Multiplicity = 1
  Basis Set: AUG-CC-PVDZ
    Blend: AUG-CC-PVDZ
  Basis Set: (AUG-CC-PVDZ AUX)
    Blend: AUG-CC-PVDZ-JKFIT

    Orbital Energies [Eh]
    ---------------------

    Doubly Occupied:

       1A    -20.537482     2A    -15.609466     3A    -11.366060
       4A     -1.381644     5A     -1.229920     6A     -0.856324
       7A     -0.757188     8A     -0.678128     9A     -0.604202
      10A     -0.571643    11A     -0.434301    12A     -0.420886

  @DF-RHF Final Energy:  -168.96285806913704

   => Energetics <=

    Nuclear Repulsion Energy =             71.1611145121232624
    One-Electron Energy =                -371.3534583000233624
    Two-Electron Energy =                 131.2294857187630441
    Total Energy =                       -168.9628580691370416

  Dipole Moment: [D]
     X:    -1.5763      Y:    -4.1800      Z:    -0.0000     Total:     4.4674

    SAPT Results
  --------------------------------------------------------------------------------------------------------
    Electrostatics               -124.40900366 [mEh]     -78.06782842 [kcal/mol]    -326.63579411 [kJ/mol]
      Elst10,r                   -124.64204538 [mEh]     -78.21406431 [kcal/mol]    -327.24764507 [kJ/mol]
      Elst12,r                      0.23304173 [mEh]       0.14623589 [kcal/mol]       0.61185097 [kJ/mol]

    Exchange                      261.76964903 [mEh]     164.26293471 [kcal/mol]     687.27611884 [kJ/mol]
      Exch10                      242.54954949 [mEh]     152.20214017 [kcal/mol]     636.81375446 [kJ/mol]
      Exch10(S^2)                 227.99635923 [mEh]     143.06987540 [kcal/mol]     598.60435868 [kJ/mol]
      Exch11(S^2)                  -1.24807000 [mEh]      -0.78317575 [kcal/mol]      -3.27680734 [kJ/mol]
      Exch12(S^2)                  20.46816954 [mEh]      12.84397030 [kcal/mol]      53.73917172 [kJ/mol]

    Induction                     -98.67961045 [mEh]     -61.92239043 [kcal/mol]    -259.08328155 [kJ/mol]
      Ind20,r                    -122.57612813 [mEh]     -76.91768166 [kcal/mol]    -321.82358007 [kJ/mol]
      Ind22                       -17.69806948 [mEh]     -11.10570627 [kcal/mol]     -46.46627501 [kJ/mol]
      Exch-Ind20,r                 71.19901439 [mEh]      44.67805606 [kcal/mol]     186.93298654 [kJ/mol]
      Exch-Ind22                   10.28002045 [mEh]       6.45081022 [kcal/mol]      26.99018997 [kJ/mol]
      delta HF,r (2)              -39.88444768 [mEh]     -25.02786878 [kcal/mol]    -104.71660296 [kJ/mol]

    Dispersion                    -34.86698438 [mEh]     -21.87936302 [kcal/mol]     -91.54325487 [kJ/mol]
      Disp20                      -42.93067857 [mEh]     -26.93940752 [kcal/mol]    -112.71448106 [kJ/mol]
      Disp21                        6.60046787 [mEh]       4.14185612 [kcal/mol]      17.32952601 [kJ/mol]
      Disp22 (SDQ)                 -2.26586535 [mEh]      -1.42185197 [kcal/mol]      -5.94902865 [kJ/mol]
      Disp22 (T)                   -6.20114496 [mEh]      -3.89127721 [kcal/mol]     -16.28110386 [kJ/mol]
      Est. Disp22 (T)              -6.62802953 [mEh]      -4.15915132 [kcal/mol]     -17.40188914 [kJ/mol]
      Exch-Disp20                  10.35712121 [mEh]       6.49919168 [kcal/mol]      27.19261798 [kJ/mol]

  Total HF                         26.64594269 [mEh]      16.72058147 [kcal/mol]      69.95891289 [kJ/mol]
  Total SAPT0                      -5.92761468 [mEh]      -3.71963437 [kcal/mol]     -15.56295019 [kJ/mol]
  Total SAPT2                       6.10747756 [mEh]       3.83250003 [kcal/mol]      16.03518011 [kJ/mol]
  Total SAPT2+                      3.81405054 [mEh]       2.39335285 [kcal/mol]      10.01378833 [kJ/mol]

  Special recipe for scaled SAPT0 (see Manual):
    Electrostatics sSAPT0        -124.64204538 [mEh]     -78.21406431 [kcal/mol]    -327.24764507 [kJ/mol]
    Exchange sSAPT0               242.54954949 [mEh]     152.20214017 [kcal/mol]     636.81375446 [kJ/mol]
    Induction sSAPT0              -76.73870064 [mEh]     -48.15426166 [kcal/mol]    -201.47743078 [kJ/mol]
    Dispersion sSAPT0             -30.46095748 [mEh]     -19.11453940 [kcal/mol]     -79.97523285 [kJ/mol]
  Total sSAPT0                     10.70784598 [mEh]       6.71927480 [kcal/mol]      28.11344575 [kJ/mol]
  --------------------------------------------------------------------------------------------------------

*** Psi4 exiting successfully. Buy a developer a beer!
