                               Psi4 1.3.2 release

  ==> Input File <==

--------------------------------------------------------------------------
#psi4
#
memory 32 gb

molecule  {
0 1
  C       -2.0482690     0.2828850     0.0000130
  H       -3.1457830     0.3491130    -0.0000080
  O       -1.3512910     1.2933720    -0.0000010
  N       -1.5923150    -0.9782630     0.0000040
  H       -0.5837530    -1.1752650     0.0000030
  H       -2.2528990    -1.7321960    -0.0000070
--
0 1
  C        1.9165145    -0.2393647     0.0000040
  H        3.0064265    -0.2656327     0.0000000
  N        1.1846085    -1.3010237     0.0000020
  H        1.7843735    -2.1173428    -0.0000040
  N        1.4043395     1.0055772     0.0000000
  H        0.3976995     1.1555533    -0.0000010
  H        2.0202265     1.7931303    -0.0000050
units angstrom
no_reorient  #important for SAPT in psi4, default
symmetry c1  #important for SAPT in psi4, default
}

set {
basis aug-cc-pVDZ
scf_type DF
freeze_core True
}
energy('sapt2+')
--------------------------------------------------------------------------

  //              Dimer HF             //
    Molecular point group: c1
  Charge       = 0
  Multiplicity = 1
  Basis Set: AUG-CC-PVDZ
    Blend: AUG-CC-PVDZ
  Basis Set: (AUG-CC-PVDZ AUX)
    Blend: AUG-CC-PVDZ-JKFIT
  @DF-RHF Final Energy:  -318.08629627391826
    Total Energy =                       -318.0862962739182649
  //            Monomer A HF           //
    Molecular point group: c1
  Multiplicity = 1
  Basis Set: AUG-CC-PVDZ
    Blend: AUG-CC-PVDZ
  Basis Set: (AUG-CC-PVDZ AUX)
    Blend: AUG-CC-PVDZ-JKFIT
  @DF-RHF Final Energy:  -168.96212829544814
    Total Energy =                       -168.9621282954481387
  //            Monomer B HF           //
    Molecular point group: c1

    Geometry (in Angstrom), charge = 0, multiplicity = 1:

       Center              X                  Y                   Z               Mass
    ------------   -----------------  -----------------  -----------------  -----------------
      Gh(C)          -1.958406844901     0.267552030814     0.000010194538    12.000000000000
      Gh(H)          -3.055920844901     0.333780030814    -0.000010805462     1.007825032230
      Gh(O)          -1.261428844901     1.278039030814    -0.000003805462    15.994914619570
      Gh(N)          -1.502452844901    -0.993595969186     0.000001194538    14.003074004430
      Gh(H)          -0.493890844901    -1.190597969186     0.000000194538     1.007825032230
      Gh(H)          -2.163036844901    -1.747528969186    -0.000009805462     1.007825032230
         C            2.006376655099    -0.254697669186     0.000001194538    12.000000000000
         H            3.096288655099    -0.280965669186    -0.000002805462     1.007825032230
         N            1.274470655099    -1.316356669186    -0.000000805462    14.003074004430
         H            1.874235655099    -2.132675769186    -0.000006805462     1.007825032230
         N            1.494201655099     0.990244230814    -0.000002805462    14.003074004430
         H            0.487561655099     1.140220330814    -0.000003805462     1.007825032230
         H            2.110088655099     1.777797330814    -0.000007805462     1.007825032230

  Charge       = 0
  Multiplicity = 1
  Basis Set: AUG-CC-PVDZ
    Blend: AUG-CC-PVDZ
  Basis Set: (AUG-CC-PVDZ AUX)
    Blend: AUG-CC-PVDZ-JKFIT

    Orbital Energies [Eh]
    ---------------------

    Doubly Occupied:

       1A    -15.588375     2A    -15.528825     3A    -11.323011
       4A     -1.262334     5A     -1.139967     6A     -0.832232
       7A     -0.747450     8A     -0.640367     9A     -0.617088
      10A     -0.529292    11A     -0.419299    12A     -0.358402

  @DF-RHF Final Energy:  -149.10905890806598

   => Energetics <=

    Nuclear Repulsion Energy =             72.2208410031249173
    One-Electron Energy =                -344.6865137113037463
    Two-Electron Energy =                 123.3566138001128536
    Total Energy =                       -149.1090589080659754

  Dipole Moment: [D]
     X:     2.1500      Y:     2.4653      Z:    -0.0000     Total:     3.2711

    SAPT Results
  --------------------------------------------------------------------------------------------------------
    Electrostatics                -53.58346889 [mEh]     -33.62413437 [kcal/mol]    -140.68337819 [kJ/mol]
      Elst10,r                    -53.58206632 [mEh]     -33.62325424 [kcal/mol]    -140.67969575 [kJ/mol]
      Elst12,r                     -0.00140257 [mEh]      -0.00088012 [kcal/mol]      -0.00368244 [kJ/mol]

    Exchange                       71.10689340 [mEh]      44.62024926 [kcal/mol]     186.69112290 [kJ/mol]
      Exch10                       62.92594274 [mEh]      39.48662522 [kcal/mol]     165.21203991 [kJ/mol]
      Exch10(S^2)                  61.58006274 [mEh]      38.64207276 [kcal/mol]     161.67843244 [kJ/mol]
      Exch11(S^2)                   0.02709455 [mEh]       0.01700208 [kcal/mol]       0.07113672 [kJ/mol]
      Exch12(S^2)                   8.15385611 [mEh]       5.11662196 [kcal/mol]      21.40794628 [kJ/mol]

    Induction                     -26.33681952 [mEh]     -16.52660376 [kcal/mol]     -69.14731011 [kJ/mol]
      Ind20,r                     -29.99771236 [mEh]     -18.82384870 [kcal/mol]     -78.75898295 [kJ/mol]
      Ind22                        -4.17756178 [mEh]      -2.62145959 [kcal/mol]     -10.96818693 [kJ/mol]
      Exch-Ind20,r                 16.47023529 [mEh]      10.33522868 [kcal/mol]      43.24259679 [kJ/mol]
      Exch-Ind22                    2.29368908 [mEh]       1.43931163 [kcal/mol]       6.02207986 [kJ/mol]
      delta HF,r (2)              -10.92546975 [mEh]      -6.85583577 [kcal/mol]     -28.68481687 [kJ/mol]

    Dispersion                    -15.62633880 [mEh]      -9.80567564 [kcal/mol]     -41.02694687 [kJ/mol]
      Disp20                      -17.58648804 [mEh]     -11.03568785 [kcal/mol]     -46.17331798 [kJ/mol]
      Disp21                        1.63726189 [mEh]       1.02739735 [kcal/mol]       4.29863051 [kJ/mol]
      Disp22 (SDQ)                 -0.55078004 [mEh]      -0.34561969 [kcal/mol]      -1.44607279 [kJ/mol]
      Disp22 (T)                   -2.60863729 [mEh]      -1.63694461 [kcal/mol]      -6.84897625 [kJ/mol]
      Est. Disp22 (T)              -2.85316205 [mEh]      -1.79038622 [kcal/mol]      -7.49097592 [kJ/mol]
      Exch-Disp20                   3.72682943 [mEh]       2.33862077 [kcal/mol]       9.78478931 [kJ/mol]

  Total HF                        -15.10907040 [mEh]      -9.48108482 [kcal/mol]     -39.66885888 [kJ/mol]
  Total SAPT0                     -28.96872901 [mEh]     -18.17815190 [kcal/mol]     -76.05738755 [kJ/mol]
  Total SAPT2                     -22.67305361 [mEh]     -14.22755594 [kcal/mol]     -59.52809406 [kJ/mol]
  Total SAPT2+                    -24.43973381 [mEh]     -15.33616450 [kcal/mol]     -64.16651227 [kJ/mol]

  Special recipe for scaled SAPT0 (see Manual):
    Electrostatics sSAPT0         -53.58206632 [mEh]     -33.62325424 [kcal/mol]    -140.67969575 [kJ/mol]
    Exchange sSAPT0                62.92594274 [mEh]      39.48662522 [kcal/mol]     165.21203991 [kJ/mol]
    Induction sSAPT0              -23.34926334 [mEh]     -14.65188395 [kcal/mol]     -61.30348246 [kJ/mol]
    Dispersion sSAPT0             -13.60992083 [mEh]      -8.54035426 [kcal/mol]     -35.73284220 [kJ/mol]
  Total sSAPT0                    -27.61530775 [mEh]     -17.32886723 [kcal/mol]     -72.50398050 [kJ/mol]
  --------------------------------------------------------------------------------------------------------

*** Psi4 exiting successfully. Buy a developer a beer!
