                               Psi4 1.3.2 release

  ==> Input File <==

--------------------------------------------------------------------------
#psi4
#
memory 32 gb

molecule  {
0 1
  C        2.0083120    -0.3372920     0.0000040
  H        3.1030340    -0.4288200    -0.0000030
  O        1.2864570    -1.3299810     0.0000000
  N        1.5810970     0.9343630     0.0000010
  H        0.5827550     1.1459700     0.0000010
  H        3.1124342     1.5599936    -0.0000029
--
0 1
  C       -1.1480458     0.2186066     0.0000012
  H       -2.2427678     0.3101346    -0.0000008
  O       -0.4261908     1.2112956     0.0000002
  N       -0.7208308    -1.0530484     0.0000002
  H        0.2775112    -1.2646554     0.0000002
  H       -1.3919018    -1.7973644    -0.0000008
units angstrom
no_reorient  #important for SAPT in psi4, default
symmetry c1  #important for SAPT in psi4, default
}

set {
basis aug-cc-pVDZ
scf_type DF
freeze_core True
}
energy('sapt2+')
--------------------------------------------------------------------------

  //              Dimer HF             //
    Molecular point group: c1
  Charge       = 0
  Multiplicity = 1
  Basis Set: AUG-CC-PVDZ
    Blend: AUG-CC-PVDZ
  Basis Set: (AUG-CC-PVDZ AUX)
    Blend: AUG-CC-PVDZ-JKFIT
  @DF-RHF Final Energy:  -337.60624119777589
    Total Energy =                       -337.6062411977758870
  //            Monomer A HF           //
    Molecular point group: c1
  Multiplicity = 1
  Basis Set: AUG-CC-PVDZ
    Blend: AUG-CC-PVDZ
  Basis Set: (AUG-CC-PVDZ AUX)
    Blend: AUG-CC-PVDZ-JKFIT
  @DF-RHF Final Energy:  -168.80071891788717
    Total Energy =                       -168.8007189178871670
  //            Monomer B HF           //
    Molecular point group: c1

    Geometry (in Angstrom), charge = 0, multiplicity = 1:

       Center              X                  Y                   Z               Mass
    ------------   -----------------  -----------------  -----------------  -----------------
      Gh(C)           1.568550183616    -0.276620887869     0.000003155365    12.000000000000
      Gh(H)           2.663272183616    -0.368148887869    -0.000003844635     1.007825032230
      Gh(O)           0.846695183616    -1.269309887869    -0.000000844635    15.994914619570
      Gh(N)           1.141335183616     0.995034112131     0.000000155365    14.003074004430
      Gh(H)           0.142993183616     1.206641112131     0.000000155365     1.007825032230
      Gh(H)           2.672672383616     1.620664712131    -0.000003744635     1.007825032230
         C           -1.587807616384     0.279277712131     0.000000355365    12.000000000000
         H           -2.682529616384     0.370805712131    -0.000001644635     1.007825032230
         O           -0.865952616384     1.271966712131    -0.000000644635    15.994914619570
         N           -1.160592616384    -0.992377287869    -0.000000644635    14.003074004430
         H           -0.162250616384    -1.203984287869    -0.000000644635     1.007825032230
         H           -1.831663616384    -1.736693287869    -0.000001644635     1.007825032230

  Charge       = 0
  Multiplicity = 1
  Basis Set: AUG-CC-PVDZ
    Blend: AUG-CC-PVDZ
  Basis Set: (AUG-CC-PVDZ AUX)
    Blend: AUG-CC-PVDZ-JKFIT

    Orbital Energies [Eh]
    ---------------------

    Doubly Occupied:

       1A    -20.537789     2A    -15.609500     3A    -11.365991
       4A     -1.381563     5A     -1.229869     6A     -0.856292
       7A     -0.757128     8A     -0.678091     9A     -0.604158
      10A     -0.571538    11A     -0.434278    12A     -0.420781

  @DF-RHF Final Energy:  -168.96333361318256

   => Energetics <=

    Nuclear Repulsion Energy =             71.1611145121232624
    One-Electron Energy =                -371.3549355184865135
    Two-Electron Energy =                 131.2304873931806810
    Total Energy =                       -168.9633336131825558

  Dipole Moment: [D]
     X:    -1.5746      Y:    -4.1780      Z:    -0.0000     Total:     4.4648

    SAPT Results
  --------------------------------------------------------------------------------------------------------
    Electrostatics               -221.83809049 [mEh]    -139.20550343 [kcal/mol]    -582.43582633 [kJ/mol]
      Elst10,r                   -223.62553825 [mEh]    -140.32714383 [kcal/mol]    -587.12876978 [kJ/mol]
      Elst12,r                      1.78744776 [mEh]       1.12164040 [kcal/mol]       4.69294345 [kJ/mol]

    Exchange                      642.78664634 [mEh]     403.35471020 [kcal/mol]    1687.63610746 [kJ/mol]
      Exch10                      622.68907593 [mEh]     390.74329436 [kcal/mol]    1634.86994361 [kJ/mol]
      Exch10(S^2)                 541.59231888 [mEh]     339.85431102 [kcal/mol]    1421.95043731 [kJ/mol]
      Exch11(S^2)                  -5.33470267 [mEh]      -3.34757647 [kcal/mol]     -14.00625994 [kJ/mol]
      Exch12(S^2)                  25.43227309 [mEh]      15.95899230 [kcal/mol]      66.77242379 [kJ/mol]

    Induction                    -263.62719532 [mEh]    -165.42856261 [kcal/mol]    -692.15310597 [kJ/mol]
      Ind20,r                    -369.26848227 [mEh]    -231.71947099 [kcal/mol]    -969.51426662 [kJ/mol]
      Ind22                       -45.54472127 [mEh]     -28.57974408 [kcal/mol]    -119.57764923 [kJ/mol]
      Exch-Ind20,r                187.85604382 [mEh]     117.88144720 [kcal/mol]     493.21597509 [kJ/mol]
      Exch-Ind22                   23.16973033 [mEh]      14.53922529 [kcal/mol]      60.83211861 [kJ/mol]
      delta HF,r (2)              -59.83976593 [mEh]     -37.55002003 [kcal/mol]    -157.10928382 [kJ/mol]

    Dispersion                    -66.78964809 [mEh]     -41.91113693 [kcal/mol]    -175.35619691 [kJ/mol]
      Disp20                      -84.97990277 [mEh]     -53.32569407 [kcal/mol]    -223.11470398 [kJ/mol]
      Disp21                       17.84925678 [mEh]      11.20057773 [kcal/mol]      46.86321723 [kJ/mol]
      Disp22 (SDQ)                 -5.38508927 [mEh]      -3.37919454 [kcal/mol]     -14.13854994 [kJ/mol]
      Disp22 (T)                  -11.62043533 [mEh]      -7.29193326 [kcal/mol]     -30.50944876 [kJ/mol]
      Est. Disp22 (T)             -12.22909369 [mEh]      -7.67387215 [kcal/mol]     -32.10748107 [kJ/mol]
      Exch-Disp20                  17.95518086 [mEh]      11.26704609 [kcal/mol]      47.14132085 [kJ/mol]

  Total HF                        157.81133329 [mEh]      99.02810671 [kcal/mol]     414.33359848 [kJ/mol]
  Total SAPT0                      90.78661138 [mEh]      56.96945873 [kcal/mol]     238.36021534 [kJ/mol]
  Total SAPT2                      90.29663862 [mEh]      56.66199618 [kcal/mol]     237.07379203 [kJ/mol]
  Total SAPT2+                     90.53171244 [mEh]      56.80950723 [kcal/mol]     237.69097826 [kJ/mol]

  Special recipe for scaled SAPT0 (see Manual):
    Electrostatics sSAPT0        -223.62553825 [mEh]    -140.32714383 [kcal/mol]    -587.12876978 [kJ/mol]
    Exchange sSAPT0               622.68907593 [mEh]     390.74329436 [kcal/mol]    1634.86994361 [kJ/mol]
    Induction sSAPT0             -143.59818292 [mEh]     -90.10922020 [kcal/mol]    -377.01697730 [kJ/mol]
    Dispersion sSAPT0             -57.69100242 [mEh]     -36.20165057 [kcal/mol]    -151.46770600 [kJ/mol]
  Total sSAPT0                    197.77435234 [mEh]     124.10527976 [kcal/mol]     519.25649053 [kJ/mol]
  --------------------------------------------------------------------------------------------------------

*** Psi4 exiting successfully. Buy a developer a beer!
