                               Psi4 1.3.2 release

  ==> Input File <==

--------------------------------------------------------------------------
#psi4
#
memory 32 gb

molecule  {
0 1
  C        1.9047060    -0.1798760     0.0000010
  H        2.9930900    -0.2590830    -0.0000010
  O        1.1798480    -1.1602640     0.0000000
  O        1.5170880     1.0770050     0.0000000
  H        0.5236580     1.1098660     0.0000010
--
0 1
  C       -1.6350342     0.1715304    -0.0000010
  H       -2.7234243     0.2506724     0.0000000
  O       -0.9102352     1.1519624     0.0000000
  O       -1.2473342    -1.0853246     0.0000000
  H       -0.2538883    -1.1181246     0.0000010
units angstrom
no_reorient  #important for SAPT in psi4, default
symmetry c1  #important for SAPT in psi4, default
}

set {
basis aug-cc-pVDZ
scf_type DF
freeze_core True
}
energy('sapt2+')
--------------------------------------------------------------------------

  //              Dimer HF             //
    Molecular point group: c1
  Charge       = 0
  Multiplicity = 1
  Basis Set: AUG-CC-PVDZ
    Blend: AUG-CC-PVDZ
  Basis Set: (AUG-CC-PVDZ AUX)
    Blend: AUG-CC-PVDZ-JKFIT
  @DF-RHF Final Energy:  -377.60219002676627
    Total Energy =                       -377.6021900267662659
  //            Monomer A HF           //
    Molecular point group: c1
  Multiplicity = 1
  Basis Set: AUG-CC-PVDZ
    Blend: AUG-CC-PVDZ
  Basis Set: (AUG-CC-PVDZ AUX)
    Blend: AUG-CC-PVDZ-JKFIT
  @DF-RHF Final Energy:  -188.79503024794258
    Total Energy =                       -188.7950302479425773
  //            Monomer B HF           //
    Molecular point group: c1

    Geometry (in Angstrom), charge = 0, multiplicity = 1:

       Center              X                  Y                   Z               Mass
    ------------   -----------------  -----------------  -----------------  -----------------
      Gh(C)           1.769865096233    -0.175715609567     0.000000989047    12.000000000000
      Gh(H)           2.858249096233    -0.254922609567    -0.000001010953     1.007825032230
      Gh(O)           1.045007096233    -1.156103609567    -0.000000010953    15.994914619570
      Gh(O)           1.382247096233     1.081165390433    -0.000000010953    15.994914619570
      Gh(H)           0.388817096233     1.114026390433     0.000000989047     1.007825032230
         C           -1.769875103767     0.175690790433    -0.000001010953    12.000000000000
         H           -2.858265203767     0.254832790433    -0.000000010953     1.007825032230
         O           -1.045076103767     1.156122790433    -0.000000010953    15.994914619570
         O           -1.382175103767    -1.081164209567    -0.000000010953    15.994914619570
         H           -0.388729203767    -1.113964209567     0.000000989047     1.007825032230

  Charge       = 0
  Multiplicity = 1
  Basis Set: AUG-CC-PVDZ
    Blend: AUG-CC-PVDZ
  Basis Set: (AUG-CC-PVDZ AUX)
    Blend: AUG-CC-PVDZ-JKFIT

    Orbital Energies [Eh]
    ---------------------

    Doubly Occupied:

       1A    -20.646666     2A    -20.572416     3A    -11.406721
       4A     -1.486919     5A     -1.373933     6A     -0.903990
       7A     -0.732411     8A     -0.713859     9A     -0.643908
      10A     -0.597966    11A     -0.490351    12A     -0.470111

  @DF-RHF Final Energy:  -188.79502915254599

   => Energetics <=

    Nuclear Repulsion Energy =             70.1580372952030444
    One-Electron Energy =                -397.8276315374662886
    Two-Electron Energy =                 138.8745650897172652
    Total Energy =                       -188.7950291525459932

  Dipole Moment: [D]
     X:    -0.4881      Y:    -1.9919      Z:    -0.0000     Total:     2.0508

    SAPT Results
  --------------------------------------------------------------------------------------------------------
    Electrostatics                -84.11314573 [mEh]     -52.78179582 [kcal/mol]    -220.83903370 [kJ/mol]
      Elst10,r                    -84.88215560 [mEh]     -53.26435680 [kcal/mol]    -222.85806883 [kJ/mol]
      Elst12,r                      0.76900987 [mEh]       0.48256098 [kcal/mol]       2.01903513 [kJ/mol]

    Exchange                      146.74224488 [mEh]      92.08214887 [kcal/mol]     385.27171085 [kJ/mol]
      Exch10                      129.76802281 [mEh]      81.43066370 [kcal/mol]     340.70589694 [kJ/mol]
      Exch10(S^2)                 125.23497833 [mEh]      78.58613535 [kcal/mol]     328.80439031 [kJ/mol]
      Exch11(S^2)                  -0.78198811 [mEh]      -0.49070495 [kcal/mol]      -2.05310951 [kJ/mol]
      Exch12(S^2)                  17.75621019 [mEh]      11.14219011 [kcal/mol]      46.61892342 [kJ/mol]

    Induction                     -62.32685257 [mEh]     -39.11069046 [kcal/mol]    -163.63912887 [kJ/mol]
      Ind20,r                     -72.16564157 [mEh]     -45.28462376 [kcal/mol]    -189.47086583 [kJ/mol]
      Ind22                       -12.08194317 [mEh]      -7.58153380 [kcal/mol]     -31.72113741 [kJ/mol]
      Exch-Ind20,r                 40.44678103 [mEh]      25.38073828 [kcal/mol]     106.19300896 [kJ/mol]
      Exch-Ind22                    6.77158408 [mEh]       4.24923316 [kcal/mol]      17.77879156 [kJ/mol]
      delta HF,r (2)              -25.29763294 [mEh]     -15.87450434 [kcal/mol]     -66.41892614 [kJ/mol]

    Dispersion                    -23.57483617 [mEh]     -14.79343304 [kcal/mol]     -61.89572385 [kJ/mol]
      Disp20                      -26.68947366 [mEh]     -16.74789757 [kcal/mol]     -70.07320344 [kJ/mol]
      Disp21                        3.29432547 [mEh]       2.06722044 [kcal/mol]       8.64925034 [kJ/mol]
      Disp22 (SDQ)                 -1.90241593 [mEh]      -1.19378402 [kcal/mol]      -4.99479233 [kJ/mol]
      Disp22 (T)                   -4.16453087 [mEh]      -2.61328257 [kcal/mol]     -10.93397428 [kJ/mol]
      Est. Disp22 (T)              -4.50721999 [mEh]      -2.82832325 [kcal/mol]     -11.83370446 [kJ/mol]
      Exch-Disp20                   6.22994794 [mEh]       3.90935135 [kcal/mol]      16.35672605 [kJ/mol]

  Total HF                        -12.13062628 [mEh]      -7.61208291 [kcal/mol]     -31.84895490 [kJ/mol]
  Total SAPT0                     -32.59015200 [mEh]     -20.45062913 [kcal/mol]     -85.56543229 [kJ/mol]
  Total SAPT2                     -20.15727915 [mEh]     -12.64888363 [kcal/mol]     -52.92292911 [kJ/mol]
  Total SAPT2+                    -23.27258959 [mEh]     -14.60377045 [kcal/mol]     -61.10217556 [kJ/mol]

  Special recipe for scaled SAPT0 (see Manual):
    Electrostatics sSAPT0         -84.88215560 [mEh]     -53.26435680 [kcal/mol]    -222.85806883 [kJ/mol]
    Exchange sSAPT0               129.76802281 [mEh]      81.43066370 [kcal/mol]     340.70589694 [kJ/mol]
    Induction sSAPT0              -52.46352547 [mEh]     -32.92135926 [kcal/mol]    -137.74296713 [kJ/mol]
    Dispersion sSAPT0             -19.75823991 [mEh]     -12.39848273 [kcal/mol]     -51.87525174 [kJ/mol]
  Total sSAPT0                    -27.33589817 [mEh]     -17.15353508 [kcal/mol]     -71.77039077 [kJ/mol]
  --------------------------------------------------------------------------------------------------------

*** Psi4 exiting successfully. Buy a developer a beer!
