                               Psi4 1.3.2 release

  ==> Input File <==

--------------------------------------------------------------------------
#psi4
#
memory 32 gb

molecule  {
0 1
  C        2.0083120    -0.3372920     0.0000040
  H        3.1030340    -0.4288200    -0.0000030
  O        1.2864570    -1.3299810     0.0000000
  N        1.5810970     0.9343630     0.0000010
  H        0.5827550     1.1459700     0.0000010
  H        2.2521680     1.6786790    -0.0000030
--
0 1
  C       -2.0083120     0.3372920     0.0000010
  H       -3.1030340     0.4288200    -0.0000010
  O       -1.2864570     1.3299810     0.0000000
  N       -1.5810970    -0.9343630     0.0000000
  H       -0.5827550    -1.1459700     0.0000000
  H       -2.2521680    -1.6786790    -0.0000010
units angstrom
no_reorient  #important for SAPT in psi4, default
symmetry c1  #important for SAPT in psi4, default
}

set {
basis aug-cc-pVDZ
scf_type DF
freeze_core True
}
energy('sapt2+')
--------------------------------------------------------------------------

  //              Dimer HF             //
    Molecular point group: c1
  Charge       = 0
  Multiplicity = 1
  Basis Set: AUG-CC-PVDZ
    Blend: AUG-CC-PVDZ
  Basis Set: (AUG-CC-PVDZ AUX)
    Blend: AUG-CC-PVDZ-JKFIT
  @DF-RHF Final Energy:  -337.94433963713976
    Total Energy =                       -337.9443396371397625
  //            Monomer A HF           //
    Molecular point group: c1
  Multiplicity = 1
  Basis Set: AUG-CC-PVDZ
    Blend: AUG-CC-PVDZ
  Basis Set: (AUG-CC-PVDZ AUX)
    Blend: AUG-CC-PVDZ-JKFIT
  @DF-RHF Final Energy:  -168.96247403886284
    Total Energy =                       -168.9624740388628368
  //            Monomer B HF           //
    Molecular point group: c1

    Geometry (in Angstrom), charge = 0, multiplicity = 1:

       Center              X                  Y                   Z               Mass
    ------------   -----------------  -----------------  -----------------  -----------------
      Gh(C)           2.008312000000    -0.337292000000     0.000003256485    12.000000000000
      Gh(H)           3.103034000000    -0.428820000000    -0.000003743515     1.007825032230
      Gh(O)           1.286457000000    -1.329981000000    -0.000000743515    15.994914619570
      Gh(N)           1.581097000000     0.934363000000     0.000000256485    14.003074004430
      Gh(H)           0.582755000000     1.145970000000     0.000000256485     1.007825032230
      Gh(H)           2.252168000000     1.678679000000    -0.000003743515     1.007825032230
         C           -2.008312000000     0.337292000000     0.000000256485    12.000000000000
         H           -3.103034000000     0.428820000000    -0.000001743515     1.007825032230
         O           -1.286457000000     1.329981000000    -0.000000743515    15.994914619570
         N           -1.581097000000    -0.934363000000    -0.000000743515    14.003074004430
         H           -0.582755000000    -1.145970000000    -0.000000743515     1.007825032230
         H           -2.252168000000    -1.678679000000    -0.000001743515     1.007825032230

  Charge       = 0
  Multiplicity = 1
  Basis Set: AUG-CC-PVDZ
    Blend: AUG-CC-PVDZ
  Basis Set: (AUG-CC-PVDZ AUX)
    Blend: AUG-CC-PVDZ-JKFIT

    Orbital Energies [Eh]
    ---------------------

    Doubly Occupied:

       1A    -20.537449     2A    -15.609742     3A    -11.366186
       4A     -1.381731     5A     -1.229981     6A     -0.856347
       7A     -0.757240     8A     -0.678139     9A     -0.604226
      10A     -0.571719    11A     -0.434397    12A     -0.420974

  @DF-RHF Final Energy:  -168.96247403897073

   => Energetics <=

    Nuclear Repulsion Energy =             71.1611145121232624
    One-Electron Energy =                -371.3509154677260540
    Two-Electron Energy =                 131.2273269166320517
    Total Energy =                       -168.9624740389707256

  Dipole Moment: [D]
     X:    -1.5805      Y:    -4.1810      Z:    -0.0000     Total:     4.4698

    SAPT Results
  --------------------------------------------------------------------------------------------------------
    Electrostatics                -37.90377779 [mEh]     -23.78497965 [kcal/mol]     -99.51635487 [kJ/mol]
      Elst10,r                    -39.11745795 [mEh]     -24.54657545 [kcal/mol]    -102.70287169 [kJ/mol]
      Elst12,r                      1.21368016 [mEh]       0.76159580 [kcal/mol]       3.18651681 [kJ/mol]

    Exchange                       40.72181013 [mEh]      25.55332164 [kcal/mol]     106.91509776 [kJ/mol]
      Exch10                       34.36977218 [mEh]      21.56735766 [kcal/mol]      90.23782443 [kJ/mol]
      Exch10(S^2)                  33.97212597 [mEh]      21.31783089 [kcal/mol]      89.19380443 [kJ/mol]
      Exch11(S^2)                  -0.19279634 [mEh]      -0.12098153 [kcal/mol]      -0.50618673 [kJ/mol]
      Exch12(S^2)                   6.54483429 [mEh]       4.10694552 [kcal/mol]      17.18346006 [kJ/mol]

    Induction                     -16.03047763 [mEh]     -10.05927658 [kcal/mol]     -42.08801321 [kJ/mol]
      Ind20,r                     -17.07467801 [mEh]     -10.71452222 [kcal/mol]     -44.82956095 [kJ/mol]
      Ind22                        -2.77779078 [mEh]      -1.74309003 [kcal/mol]      -7.29308870 [kJ/mol]
      Exch-Ind20,r                  8.55142335 [mEh]       5.36609917 [kcal/mol]      22.45175891 [kJ/mol]
      Exch-Ind22                    1.39118670 [mEh]       0.87298283 [kcal/mol]       3.65256018 [kJ/mol]
      delta HF,r (2)               -6.12061888 [mEh]      -3.84074633 [kcal/mol]     -16.06968265 [kJ/mol]

    Dispersion                    -11.18001028 [mEh]      -7.01556237 [kcal/mol]     -29.35311294 [kJ/mol]
      Disp20                      -11.69460194 [mEh]      -7.33847351 [kcal/mol]     -30.70417316 [kJ/mol]
      Disp21                        0.95727133 [mEh]       0.60069683 [kcal/mol]       2.51331553 [kJ/mol]
      Disp22 (SDQ)                 -0.56295613 [mEh]      -0.35326030 [kcal/mol]      -1.47804111 [kJ/mol]
      Disp22 (T)                   -1.83415482 [mEh]      -1.15094952 [kcal/mol]      -4.81557280 [kJ/mol]
      Est. Disp22 (T)              -2.04365912 [mEh]      -1.28241546 [kcal/mol]      -5.36562627 [kJ/mol]
      Exch-Disp20                   2.16393557 [mEh]       1.35789007 [kcal/mol]       5.68141206 [kJ/mol]

  Total HF                        -19.39155931 [mEh]     -12.16838718 [kcal/mol]     -50.91253194 [kJ/mol]
  Total SAPT0                     -28.92222567 [mEh]     -18.14897061 [kcal/mol]     -75.93529304 [kJ/mol]
  Total SAPT2                     -22.74311165 [mEh]     -14.27151803 [kcal/mol]     -59.71203142 [kJ/mol]
  Total SAPT2+                    -24.39245557 [mEh]     -15.30649696 [kcal/mol]     -64.04238327 [kJ/mol]

  Special recipe for scaled SAPT0 (see Manual):
    Electrostatics sSAPT0         -39.11745795 [mEh]     -24.54657545 [kcal/mol]    -102.70287169 [kJ/mol]
    Exchange sSAPT0                34.36977218 [mEh]      21.56735766 [kcal/mol]      90.23782443 [kJ/mol]
    Induction sSAPT0              -14.34005986 [mEh]      -8.99852342 [kcal/mol]     -37.64982199 [kJ/mol]
    Dispersion sSAPT0              -9.45378639 [mEh]      -5.93234052 [kcal/mol]     -24.82091275 [kJ/mol]
  Total sSAPT0                    -28.54153202 [mEh]     -17.91008174 [kcal/mol]     -74.93578199 [kJ/mol]
  --------------------------------------------------------------------------------------------------------

*** Psi4 exiting successfully. Buy a developer a beer!
