                               Psi4 1.3.2 release

  ==> Input File <==

--------------------------------------------------------------------------
#psi4
#
memory 32 gb

molecule  {
0 1
  C        2.0083120    -0.3372920     0.0000040
  H        3.1030340    -0.4288200    -0.0000030
  O        1.2864570    -1.3299810     0.0000000
  N        1.5810970     0.9343630     0.0000010
  H        0.5827550     1.1459700     0.0000010
  H        1.9654126     1.7182408    -0.0000031
--
0 1
  C       -2.2950674     0.3768538     0.0000009
  H       -3.3897894     0.4683818    -0.0000010
  O       -1.5732124     1.3695428    -0.0000001
  N       -1.8678524    -0.8948012    -0.0000001
  H       -0.8695104    -1.1064082    -0.0000001
  H       -2.5389234    -1.6391172    -0.0000010
units angstrom
no_reorient  #important for SAPT in psi4, default
symmetry c1  #important for SAPT in psi4, default
}

set {
basis aug-cc-pVDZ
scf_type DF
freeze_core True
}
energy('sapt2+')
--------------------------------------------------------------------------

  //              Dimer HF             //
    Molecular point group: c1
  Charge       = 0
  Multiplicity = 1
  Basis Set: AUG-CC-PVDZ
    Blend: AUG-CC-PVDZ
  Basis Set: (AUG-CC-PVDZ AUX)
    Blend: AUG-CC-PVDZ-JKFIT
  @DF-RHF Final Energy:  -337.91610276550466
    Total Energy =                       -337.9161027655046610
  //            Monomer A HF           //
    Molecular point group: c1
  Multiplicity = 1
  Basis Set: AUG-CC-PVDZ
    Blend: AUG-CC-PVDZ
  Basis Set: (AUG-CC-PVDZ AUX)
    Blend: AUG-CC-PVDZ-JKFIT
  @DF-RHF Final Energy:  -168.93547927218717
    Total Energy =                       -168.9354792721871661
  //            Monomer B HF           //
    Molecular point group: c1

    Geometry (in Angstrom), charge = 0, multiplicity = 1:

       Center              X                  Y                   Z               Mass
    ------------   -----------------  -----------------  -----------------  -----------------
      Gh(C)           2.154899272128    -0.357515704044     0.000003305365    12.000000000000
      Gh(H)           3.249621272128    -0.449043704044    -0.000003694635     1.007825032230
      Gh(O)           1.433044272128    -1.350204704044    -0.000000694635    15.994914619570
      Gh(N)           1.727684272128     0.914139295956     0.000000305365    14.003074004430
      Gh(H)           0.729342272128     1.125746295956     0.000000305365     1.007825032230
      Gh(H)           2.111999872128     1.698017095956    -0.000003794635     1.007825032230
         C           -2.148480127872     0.356630095956     0.000000205365    12.000000000000
         H           -3.243202127872     0.448158095956    -0.000001694635     1.007825032230
         O           -1.426625127872     1.349319095956    -0.000000794635    15.994914619570
         N           -1.721265127872    -0.915024904044    -0.000000794635    14.003074004430
         H           -0.722923127872    -1.126631904044    -0.000000794635     1.007825032230
         H           -2.392336127872    -1.659340904044    -0.000001694635     1.007825032230

  Charge       = 0
  Multiplicity = 1
  Basis Set: AUG-CC-PVDZ
    Blend: AUG-CC-PVDZ
  Basis Set: (AUG-CC-PVDZ AUX)
    Blend: AUG-CC-PVDZ-JKFIT

    Orbital Energies [Eh]
    ---------------------

    Doubly Occupied:

       1A    -20.537311     2A    -15.609774     3A    -11.366268
       4A     -1.381774     5A     -1.230011     6A     -0.856367
       7A     -0.757266     8A     -0.678157     9A     -0.604258
      10A     -0.571762    11A     -0.434405    12A     -0.421017

  @DF-RHF Final Energy:  -168.96232724710367

   => Energetics <=

    Nuclear Repulsion Energy =             71.1611145121242714
    One-Electron Energy =                -371.3501426181795750
    Two-Electron Energy =                 131.2267008589516024
    Total Energy =                       -168.9623272471036728

  Dipole Moment: [D]
     X:    -1.5827      Y:    -4.1818      Z:    -0.0000     Total:     4.4713

    SAPT Results
  --------------------------------------------------------------------------------------------------------
    Electrostatics                -23.26255828 [mEh]     -14.59747570 [kcal/mol]     -61.07583834 [kJ/mol]
      Elst10,r                    -24.66782295 [mEh]     -15.47929260 [kcal/mol]     -64.76536022 [kJ/mol]
      Elst12,r                      1.40526467 [mEh]       0.88181689 [kcal/mol]       3.68952188 [kJ/mol]

    Exchange                       16.04606981 [mEh]      10.06906082 [kcal/mol]      42.12895049 [kJ/mol]
      Exch10                       12.94351857 [mEh]       8.12218052 [kcal/mol]      33.98320332 [kJ/mol]
      Exch10(S^2)                  12.87709806 [mEh]       8.08050103 [kcal/mol]      33.80881629 [kJ/mol]
      Exch11(S^2)                  -0.09554643 [mEh]      -0.05995629 [kcal/mol]      -0.25085711 [kJ/mol]
      Exch12(S^2)                   3.19809767 [mEh]       2.00683659 [kcal/mol]       8.39660428 [kJ/mol]

    Induction                      -7.22564297 [mEh]      -4.53415941 [kcal/mol]     -18.97092299 [kJ/mol]
      Ind20,r                      -7.24382618 [mEh]      -4.54556956 [kcal/mol]     -19.01866302 [kJ/mol]
      Ind22                        -1.09515262 [mEh]      -0.68721865 [kcal/mol]      -2.87532281 [kJ/mol]
      Exch-Ind20,r                  2.91995636 [mEh]       1.83230028 [kcal/mol]       7.66634438 [kJ/mol]
      Exch-Ind22                    0.44145149 [mEh]       0.27701499 [kcal/mol]       1.15903073 [kJ/mol]
      delta HF,r (2)               -2.24807202 [mEh]      -1.41068649 [kcal/mol]      -5.90231226 [kJ/mol]

    Dispersion                     -6.67291716 [mEh]      -4.18731874 [kcal/mol]     -17.51974160 [kJ/mol]
      Disp20                       -6.51723288 [mEh]      -4.08962537 [kcal/mol]     -17.11099256 [kJ/mol]
      Disp21                        0.43762579 [mEh]       0.27461433 [kcal/mol]       1.14898634 [kJ/mol]
      Disp22 (SDQ)                 -0.32101124 [mEh]      -0.20143759 [kcal/mol]      -0.84281488 [kJ/mol]
      Disp22 (T)                   -1.07717895 [mEh]      -0.67593999 [kcal/mol]      -2.82813293 [kJ/mol]
      Est. Disp22 (T)              -1.19853262 [mEh]      -0.75209057 [kcal/mol]      -3.14674695 [kJ/mol]
      Exch-Disp20                   0.92623378 [mEh]       0.58122047 [kcal/mol]       2.43182645 [kJ/mol]

  Total HF                        -18.29624621 [mEh]     -11.48106783 [kcal/mol]     -48.03678782 [kJ/mol]
  Total SAPT0                     -23.88724531 [mEh]     -14.98947273 [kcal/mol]     -62.71595392 [kJ/mol]
  Total SAPT2                     -20.03313053 [mEh]     -12.57097919 [kcal/mol]     -52.59697695 [kJ/mol]
  Total SAPT2+                    -21.11504859 [mEh]     -13.24989303 [kcal/mol]     -55.43755244 [kJ/mol]

  Special recipe for scaled SAPT0 (see Manual):
    Electrostatics sSAPT0         -24.66782295 [mEh]     -15.47929260 [kcal/mol]     -64.76536022 [kJ/mol]
    Exchange sSAPT0                12.94351857 [mEh]       8.12218052 [kcal/mol]      33.98320332 [kJ/mol]
    Induction sSAPT0               -6.52652467 [mEh]      -4.09545606 [kcal/mol]     -17.13538817 [kJ/mol]
    Dispersion sSAPT0              -5.57659241 [mEh]      -3.49936457 [kcal/mol]     -14.64134134 [kJ/mol]
  Total sSAPT0                    -23.82742146 [mEh]     -14.95193270 [kcal/mol]     -62.55888642 [kJ/mol]
  --------------------------------------------------------------------------------------------------------

*** Psi4 exiting successfully. Buy a developer a beer!
