                               Psi4 1.3.2 release

  ==> Input File <==

--------------------------------------------------------------------------
#psi4
#
memory 32 gb

molecule  {
0 1
  C       -1.9644470     0.1609890    -0.0000020
  H       -3.0589320     0.1627090    -0.0000040
  O       -1.3160380     1.1929960    -0.0000020
  O       -1.4968300    -1.0660630     0.0000020
  H       -0.4778920    -1.0649310     0.0000090
--
0 1
  C        1.1647502    -0.1509121    -0.0000031
  H        2.2465662    -0.2731371    -0.0000052
  N        0.3469592    -1.1482791    -0.0000012
  H        0.8575542    -2.0217841    -0.0000012
  N        0.7499002     1.1259119     0.0000018
  H       -0.2461168     1.3244449     0.0000008
  H        1.4168202     1.8705879     0.0000038
units angstrom
no_reorient  #important for SAPT in psi4, default
symmetry c1  #important for SAPT in psi4, default
}

set {
basis aug-cc-pVDZ
scf_type DF
freeze_core True
}
energy('sapt2+')
--------------------------------------------------------------------------

  //              Dimer HF             //
    Molecular point group: c1
  Charge       = 0
  Multiplicity = 1
  Basis Set: AUG-CC-PVDZ
    Blend: AUG-CC-PVDZ
  Basis Set: (AUG-CC-PVDZ AUX)
    Blend: AUG-CC-PVDZ-JKFIT
  @DF-RHF Final Energy:  -337.63197111766203
    Total Energy =                       -337.6319711176620331
  //            Monomer A HF           //
    Molecular point group: c1
  Multiplicity = 1
  Basis Set: AUG-CC-PVDZ
    Blend: AUG-CC-PVDZ
  Basis Set: (AUG-CC-PVDZ AUX)
    Blend: AUG-CC-PVDZ-JKFIT
  @DF-RHF Final Energy:  -188.79356752111326
    Total Energy =                       -188.7935675211132605
  //            Monomer B HF           //
    Molecular point group: c1

    Geometry (in Angstrom), charge = 0, multiplicity = 1:

       Center              X                  Y                   Z               Mass
    ------------   -----------------  -----------------  -----------------  -----------------
      Gh(C)          -1.537042336838     0.140600182369    -0.000001449450    12.000000000000
      Gh(H)          -2.631527336838     0.142320182369    -0.000003449450     1.007825032230
      Gh(O)          -0.888633336838     1.172607182369    -0.000001449450    15.994914619570
      Gh(O)          -1.069425336838    -1.086451817631     0.000002550550    15.994914619570
      Gh(H)          -0.050487336838    -1.085319817631     0.000009550550     1.007825032230
         C            1.592154863162    -0.171300917631    -0.000002549450    12.000000000000
         H            2.673970863162    -0.293525917631    -0.000004649450     1.007825032230
         N            0.774363863162    -1.168667917631    -0.000000649450    14.003074004430
         H            1.284958863162    -2.042172917631    -0.000000649450     1.007825032230
         N            1.177304863162     1.105523082369     0.000002350550    14.003074004430
         H            0.181287863162     1.304056082369     0.000001350550     1.007825032230
         H            1.844224863162     1.850199082369     0.000004350550     1.007825032230

  Charge       = 0
  Multiplicity = 1
  Basis Set: AUG-CC-PVDZ
    Blend: AUG-CC-PVDZ
  Basis Set: (AUG-CC-PVDZ AUX)
    Blend: AUG-CC-PVDZ-JKFIT

    Orbital Energies [Eh]
    ---------------------

    Doubly Occupied:

       1A    -15.587939     2A    -15.526215     3A    -11.321978
       4A     -1.263752     5A     -1.138590     6A     -0.831952
       7A     -0.750041     8A     -0.640933     9A     -0.618621
      10A     -0.529938    11A     -0.417356    12A     -0.357533

  @DF-RHF Final Energy:  -149.11016726181583

   => Energetics <=

    Nuclear Repulsion Energy =             72.3341927987205793
    One-Electron Energy =                -344.9190284884693938
    Two-Electron Energy =                 123.4746684279330111
    Total Energy =                       -149.1101672618158318

  Dipole Moment: [D]
     X:     2.3239      Y:     2.2571      Z:    -0.0000     Total:     3.2396

    SAPT Results
  --------------------------------------------------------------------------------------------------------
    Electrostatics               -215.12819569 [mEh]    -134.99498087 [kcal/mol]    -564.81899997 [kJ/mol]
      Elst10,r                   -210.07386619 [mEh]    -131.82334123 [kcal/mol]    -551.54885969 [kJ/mol]
      Elst12,r                     -5.05432950 [mEh]      -3.17163965 [kcal/mol]     -13.27014028 [kJ/mol]

    Exchange                      801.62378074 [mEh]     503.02651682 [kcal/mol]    2104.66294637 [kJ/mol]
      Exch10                      789.94888657 [mEh]     495.70041012 [kcal/mol]    2074.01051596 [kJ/mol]
      Exch10(S^2)                 647.56046295 [mEh]     406.35032535 [kcal/mol]    1700.16976124 [kJ/mol]
      Exch11(S^2)                  -9.51448912 [mEh]      -5.97043206 [kcal/mol]     -24.98028774 [kJ/mol]
      Exch12(S^2)                  21.18938329 [mEh]      13.29653876 [kcal/mol]      55.63271815 [kJ/mol]

    Induction                    -340.38133207 [mEh]    -213.59251057 [kcal/mol]    -893.67106424 [kJ/mol]
      Ind20,r                    -539.67122085 [mEh]    -338.64880381 [kcal/mol]   -1416.90659514 [kJ/mol]
      Ind22                       -55.54307976 [mEh]     -34.85380875 [kcal/mol]    -145.82833581 [kJ/mol]
      Exch-Ind20,r                226.12760864 [mEh]     141.89721670 [kcal/mol]     593.69795469 [kJ/mol]
      Exch-Ind22                   23.27310280 [mEh]      14.60409249 [kcal/mol]      61.10352299 [kJ/mol]
      delta HF,r (2)                5.43225710 [mEh]       3.40879279 [kcal/mol]      14.26238904 [kJ/mol]

    Dispersion                    -83.23403566 [mEh]     -52.23014592 [kcal/mol]    -218.53093052 [kJ/mol]
      Disp20                     -102.80753642 [mEh]     -64.51270308 [kcal/mol]    -269.92114969 [kJ/mol]
      Disp21                       21.32487343 [mEh]      13.38156011 [kcal/mol]      55.98844749 [kJ/mol]
      Disp22 (SDQ)                 -5.38594477 [mEh]      -3.37973137 [kcal/mol]     -14.14079605 [kJ/mol]
      Disp22 (T)                  -13.15135058 [mEh]      -8.25259708 [kcal/mol]     -34.52886619 [kJ/mol]
      Est. Disp22 (T)             -13.77216578 [mEh]      -8.64216450 [kcal/mol]     -36.15881628 [kJ/mol]
      Exch-Disp20                  17.40673788 [mEh]      10.92289293 [kcal/mol]      45.70138402 [kJ/mol]

  Total HF                        271.76366527 [mEh]     170.53427458 [kcal/mol]     713.51540486 [kJ/mol]
  Total SAPT0                     186.36286673 [mEh]     116.94446443 [kcal/mol]     489.29563918 [kJ/mol]
  Total SAPT2                     160.71345444 [mEh]     100.84921522 [kcal/mol]     421.95311649 [kJ/mol]
  Total SAPT2+                    162.88021731 [mEh]     102.20887946 [kcal/mol]     427.64195164 [kJ/mol]

  Special recipe for scaled SAPT0 (see Manual):
    Electrostatics sSAPT0        -210.07386619 [mEh]    -131.82334123 [kcal/mol]    -551.54885969 [kJ/mol]
    Exchange sSAPT0               789.94888657 [mEh]     495.70041012 [kcal/mol]    2074.01051596 [kJ/mol]
    Induction sSAPT0             -123.74234025 [mEh]     -77.64949081 [kcal/mol]    -324.88546957 [kJ/mol]
    Dispersion sSAPT0             -71.20853279 [mEh]     -44.68402894 [kcal/mol]    -186.95797708 [kJ/mol]
  Total sSAPT0                    384.92414734 [mEh]     241.54354914 [kcal/mol]    1010.61820962 [kJ/mol]
  --------------------------------------------------------------------------------------------------------

*** Psi4 exiting successfully. Buy a developer a beer!
