                               Psi4 1.3.2 release

  ==> Input File <==

--------------------------------------------------------------------------
#psi4
#
memory 32 gb

molecule  {
0 1
  C        1.9047060    -0.1798760     0.0000010
  H        2.9930900    -0.2590830    -0.0000010
  O        1.1798480    -1.1602640     0.0000000
  O        1.5170880     1.0770050     0.0000000
  H        0.5236580     1.1098660     0.0000010
--
0 1
  C       -2.1744237     0.1881856    -0.0000010
  H       -3.2628138     0.2673276     0.0000000
  O       -1.4496248     1.1686176     0.0000000
  O       -1.7867238    -1.0686694     0.0000000
  H       -0.7932778    -1.1014694     0.0000010
units angstrom
no_reorient  #important for SAPT in psi4, default
symmetry c1  #important for SAPT in psi4, default
}

set {
basis aug-cc-pVDZ
scf_type DF
freeze_core True
}
energy('sapt2+')
--------------------------------------------------------------------------

  //              Dimer HF             //
    Molecular point group: c1
  Charge       = 0
  Multiplicity = 1
  Basis Set: AUG-CC-PVDZ
    Blend: AUG-CC-PVDZ
  Basis Set: (AUG-CC-PVDZ AUX)
    Blend: AUG-CC-PVDZ-JKFIT
  @DF-RHF Final Energy:  -377.61164306418300
    Total Energy =                       -377.6116430641829993
  //            Monomer A HF           //
    Molecular point group: c1
  Multiplicity = 1
  Basis Set: AUG-CC-PVDZ
    Blend: AUG-CC-PVDZ
  Basis Set: (AUG-CC-PVDZ AUX)
    Blend: AUG-CC-PVDZ-JKFIT
  @DF-RHF Final Energy:  -188.79468388025623
    Total Energy =                       -188.7946838802562297
  //            Monomer B HF           //
    Molecular point group: c1

    Geometry (in Angstrom), charge = 0, multiplicity = 1:

       Center              X                  Y                   Z               Mass
    ------------   -----------------  -----------------  -----------------  -----------------
      Gh(C)           2.039559881001    -0.184043209567     0.000000989047    12.000000000000
      Gh(H)           3.127943881001    -0.263250209567    -0.000001010953     1.007825032230
      Gh(O)           1.314701881001    -1.164431209567    -0.000000010953    15.994914619570
      Gh(O)           1.651941881001     1.072837790433    -0.000000010953    15.994914619570
      Gh(H)           0.658511881001     1.105698790433     0.000000989047     1.007825032230
         C           -2.039569818999     0.184018390433    -0.000001010953    12.000000000000
         H           -3.127959918999     0.263160390433    -0.000000010953     1.007825032230
         O           -1.314770918999     1.164450390433    -0.000000010953    15.994914619570
         O           -1.651869918999    -1.072836609567    -0.000000010953    15.994914619570
         H           -0.658423918999    -1.105636609567     0.000000989047     1.007825032230

  Charge       = 0
  Multiplicity = 1
  Basis Set: AUG-CC-PVDZ
    Blend: AUG-CC-PVDZ
  Basis Set: (AUG-CC-PVDZ AUX)
    Blend: AUG-CC-PVDZ-JKFIT

    Orbital Energies [Eh]
    ---------------------

    Doubly Occupied:

       1A    -20.646813     2A    -20.572333     3A    -11.406910
       4A     -1.487025     5A     -1.374019     6A     -0.904030
       7A     -0.732468     8A     -0.713921     9A     -0.644011
      10A     -0.598015    11A     -0.490459    12A     -0.470222

  @DF-RHF Final Energy:  -188.79468270949968

   => Energetics <=

    Nuclear Repulsion Energy =             70.1580384660591818
    One-Electron Energy =                -397.8249888499508415
    Two-Electron Energy =                 138.8722676743919919
    Total Energy =                       -188.7946827094996820

  Dipole Moment: [D]
     X:    -0.4909      Y:    -1.9914      Z:    -0.0000     Total:     2.0510

    SAPT Results
  --------------------------------------------------------------------------------------------------------
    Electrostatics                -29.12098492 [mEh]     -18.27369392 [kcal/mol]     -76.45713536 [kJ/mol]
      Elst10,r                    -31.12166741 [mEh]     -19.52914114 [kcal/mol]     -81.70992654 [kJ/mol]
      Elst12,r                      2.00068250 [mEh]       1.25544722 [kcal/mol]       5.25279117 [kJ/mol]

    Exchange                       24.65681906 [mEh]      15.47238755 [kcal/mol]      64.73646953 [kJ/mol]
      Exch10                       19.82796232 [mEh]      12.44223420 [kcal/mol]      52.05830790 [kJ/mol]
      Exch10(S^2)                  19.67430811 [mEh]      12.34581473 [kcal/mol]      51.65488883 [kJ/mol]
      Exch11(S^2)                  -0.08668316 [mEh]      -0.05439451 [kcal/mol]      -0.22758661 [kJ/mol]
      Exch12(S^2)                   4.91553991 [mEh]       3.08454786 [kcal/mol]      12.90574824 [kJ/mol]

    Induction                     -12.16132603 [mEh]      -7.63134730 [kcal/mol]     -31.92955709 [kJ/mol]
      Ind20,r                     -12.23452189 [mEh]      -7.67727839 [kcal/mol]     -32.12173279 [kJ/mol]
      Ind22                        -2.08550120 [mEh]      -1.30867176 [kcal/mol]      -5.47548264 [kJ/mol]
      Exch-Ind20,r                  5.32055908 [mEh]       3.33870123 [kcal/mol]      13.96912595 [kJ/mol]
      Exch-Ind22                    0.90694450 [mEh]       0.56911627 [kcal/mol]       2.38118246 [kJ/mol]
      delta HF,r (2)               -4.06880653 [mEh]      -2.55321464 [kcal/mol]     -10.68265007 [kJ/mol]

    Dispersion                     -8.28660749 [mEh]      -5.19992470 [kcal/mol]     -21.75648496 [kJ/mol]
      Disp20                       -8.05611968 [mEh]      -5.05529142 [kcal/mol]     -21.15133930 [kJ/mol]
      Disp21                        0.66268340 [mEh]       0.41584011 [kcal/mol]       1.73987503 [kJ/mol]
      Disp22 (SDQ)                 -0.61291461 [mEh]      -0.38460972 [kcal/mol]      -1.60920708 [kJ/mol]
      Disp22 (T)                   -1.38557432 [mEh]      -0.86946101 [kcal/mol]      -3.63782487 [kJ/mol]
      Est. Disp22 (T)              -1.55135509 [mEh]      -0.97349001 [kcal/mol]      -4.07308222 [kJ/mol]
      Exch-Disp20                   1.27109848 [mEh]       0.79762634 [kcal/mol]       3.33726860 [kJ/mol]

  Total HF                        -22.27647443 [mEh]     -13.97869875 [kcal/mol]     -58.48687555 [kJ/mol]
  Total SAPT0                     -29.06149562 [mEh]     -18.23636383 [kcal/mol]     -76.30094625 [kJ/mol]
  Total SAPT2                     -23.41051308 [mEh]     -14.69031874 [kcal/mol]     -61.46429362 [kJ/mol]
  Total SAPT2+                    -24.91209937 [mEh]     -15.63257837 [kcal/mol]     -65.40670789 [kJ/mol]

  Special recipe for scaled SAPT0 (see Manual):
    Electrostatics sSAPT0         -31.12166741 [mEh]     -19.52914114 [kcal/mol]     -81.70992654 [kJ/mol]
    Exchange sSAPT0                19.82796232 [mEh]      12.44223420 [kcal/mol]      52.05830790 [kJ/mol]
    Induction sSAPT0              -10.85713426 [mEh]      -6.81295461 [kcal/mol]     -28.50540208 [kJ/mol]
    Dispersion sSAPT0              -6.75500658 [mEh]      -4.23883062 [kcal/mol]     -17.73526733 [kJ/mol]
  Total sSAPT0                    -28.90584593 [mEh]     -18.13869217 [kcal/mol]     -75.89228805 [kJ/mol]
  --------------------------------------------------------------------------------------------------------

*** Psi4 exiting successfully. Buy a developer a beer!
