                               Psi4 1.3.2 release

  ==> Input File <==

--------------------------------------------------------------------------
#psi4
#
memory 32 gb

molecule  {
0 1
  C        2.1022740    -0.1999910     0.0000010
  H        3.1931760    -0.2048250     0.0000000
  N        1.3929100    -1.2773340     0.0000000
  H        2.0119970    -2.0793170    -0.0000010
  N        1.5658380     1.0343930     0.0000000
  H        0.5512430     1.1716950     0.0000000
  H        2.1722770     1.8295020    -0.0000010
--
0 1
  C       -1.2146496     0.1271087     0.0000000
  H       -2.3055516     0.1319427     0.0000000
  N       -0.5052856     1.2044517     0.0000000
  H       -1.1243726     2.0064347     0.0000000
  N       -0.6782136    -1.1072753     0.0000000
  H        0.3363814    -1.2445773     0.0000000
  H       -1.2846526    -1.9023843     0.0000000
units angstrom
no_reorient  #important for SAPT in psi4, default
symmetry c1  #important for SAPT in psi4, default
}

set {
basis aug-cc-pVDZ
scf_type DF
freeze_core True
}
energy('sapt2+')
--------------------------------------------------------------------------

  //              Dimer HF             //
    Molecular point group: c1
  Charge       = 0
  Multiplicity = 1
  Basis Set: AUG-CC-PVDZ
    Blend: AUG-CC-PVDZ
  Basis Set: (AUG-CC-PVDZ AUX)
    Blend: AUG-CC-PVDZ-JKFIT
  @DF-RHF Final Energy:  -298.02556826564421
    Total Energy =                       -298.0255682656442104
  //            Monomer A HF           //
    Molecular point group: c1
  Multiplicity = 1
  Basis Set: AUG-CC-PVDZ
    Blend: AUG-CC-PVDZ
  Basis Set: (AUG-CC-PVDZ AUX)
    Blend: AUG-CC-PVDZ-JKFIT
  @DF-RHF Final Energy:  -149.10952057370579
    Total Energy =                       -149.1095205737058222
  //            Monomer B HF           //
    Molecular point group: c1

    Geometry (in Angstrom), charge = 0, multiplicity = 1:

       Center              X                  Y                   Z               Mass
    ------------   -----------------  -----------------  -----------------  -----------------
      Gh(C)           1.658461800000    -0.163549850000     0.000000886638    12.000000000000
      Gh(H)           2.749363800000    -0.168383850000    -0.000000113362     1.007825032230
      Gh(N)           0.949097800000    -1.240892850000    -0.000000113362    14.003074004430
      Gh(H)           1.568184800000    -2.042875850000    -0.000001113362     1.007825032230
      Gh(N)           1.122025800000     1.070834150000    -0.000000113362    14.003074004430
      Gh(H)           0.107430800000     1.208136150000    -0.000000113362     1.007825032230
      Gh(H)           1.728464800000     1.865943150000    -0.000001113362     1.007825032230
         C           -1.658461800000     0.163549850000    -0.000000113362    12.000000000000
         H           -2.749363800000     0.168383850000    -0.000000113362     1.007825032230
         N           -0.949097800000     1.240892850000    -0.000000113362    14.003074004430
         H           -1.568184800000     2.042875850000    -0.000000113362     1.007825032230
         N           -1.122025800000    -1.070834150000    -0.000000113362    14.003074004430
         H           -0.107430800000    -1.208136150000    -0.000000113362     1.007825032230
         H           -1.728464800000    -1.865943150000    -0.000000113362     1.007825032230

  Charge       = 0
  Multiplicity = 1
  Basis Set: AUG-CC-PVDZ
    Blend: AUG-CC-PVDZ
  Basis Set: (AUG-CC-PVDZ AUX)
    Blend: AUG-CC-PVDZ-JKFIT

    Orbital Energies [Eh]
    ---------------------

    Doubly Occupied:

       1A    -15.588987     2A    -15.528428     3A    -11.322847
       4A     -1.261801     5A     -1.139605     6A     -0.831293
       7A     -0.746711     8A     -0.639977     9A     -0.616330
      10A     -0.529114    11A     -0.419311    12A     -0.358131

  @DF-RHF Final Energy:  -149.10952057377474

   => Energetics <=

    Nuclear Repulsion Energy =             72.1807086195704244
    One-Electron Energy =                -344.6153906491578027
    Two-Electron Energy =                 123.3251614558126761
    Total Energy =                       -149.1095205737747165

  Dipole Moment: [D]
     X:    -2.0925      Y:    -2.5211      Z:     0.0000     Total:     3.2764

    SAPT Results
  --------------------------------------------------------------------------------------------------------
    Electrostatics               -241.35976735 [mEh]    -151.45554060 [kcal/mol]    -633.68998188 [kJ/mol]
      Elst10,r                   -239.05135792 [mEh]    -150.00699181 [kcal/mol]    -627.62925374 [kJ/mol]
      Elst12,r                     -2.30840944 [mEh]      -1.44854879 [kcal/mol]      -6.06072814 [kJ/mol]

    Exchange                      665.34252499 [mEh]     417.50873774 [kcal/mol]    1746.85655870 [kJ/mol]
      Exch10                      657.23767708 [mEh]     412.42286889 [kcal/mol]    1725.57728345 [kJ/mol]
      Exch10(S^2)                 554.20896814 [mEh]     347.77137796 [kcal/mol]    1455.07544539 [kJ/mol]
      Exch11(S^2)                  -0.35357132 [mEh]      -0.22186936 [kcal/mol]      -0.92830138 [kJ/mol]
      Exch12(S^2)                   8.45841923 [mEh]       5.30773820 [kcal/mol]      22.20757664 [kJ/mol]

    Induction                    -242.58887645 [mEh]    -152.22681821 [kcal/mol]    -636.91700737 [kJ/mol]
      Ind20,r                    -362.15281231 [mEh]    -227.25432068 [kcal/mol]    -950.83207774 [kJ/mol]
      Ind22                       -32.24953364 [mEh]     -20.23688789 [kcal/mol]     -84.67113891 [kJ/mol]
      Exch-Ind20,r                161.41686924 [mEh]     101.29061468 [kcal/mol]     423.79993181 [kJ/mol]
      Exch-Ind22                   14.37409452 [mEh]       9.01988049 [kcal/mol]      37.73917996 [kJ/mol]
      delta HF,r (2)              -23.97749426 [mEh]     -15.04610480 [kcal/mol]     -62.95290250 [kJ/mol]

    Dispersion                    -74.22302329 [mEh]     -46.57565029 [kcal/mol]    -194.87252080 [kJ/mol]
      Disp20                      -93.26484709 [mEh]     -58.52457512 [kcal/mol]    -244.86682230 [kJ/mol]
      Disp21                       16.86004381 [mEh]      10.57983722 [kcal/mol]      44.26603891 [kJ/mol]
      Disp22 (SDQ)                 -2.12014593 [mEh]      -1.33041166 [kcal/mol]      -5.56644238 [kJ/mol]
      Disp22 (T)                  -11.31856792 [mEh]      -7.10250860 [kcal/mol]     -29.71689598 [kJ/mol]
      Est. Disp22 (T)             -11.81682705 [mEh]      -7.41517092 [kcal/mol]     -31.02507514 [kJ/mol]
      Exch-Disp20                  16.11875298 [mEh]      10.11467020 [kcal/mol]      42.31978011 [kJ/mol]

  Total HF                        193.47288184 [mEh]     121.40606627 [kcal/mol]     507.96298128 [kJ/mol]
  Total SAPT0                     116.32678772 [mEh]      72.99616135 [kcal/mol]     305.41593909 [kJ/mol]
  Total SAPT2                     104.24778707 [mEh]      65.41647401 [kcal/mol]     273.70252726 [kJ/mol]
  Total SAPT2+                    107.17085790 [mEh]      67.25072864 [kcal/mol]     281.37704865 [kJ/mol]

  Special recipe for scaled SAPT0 (see Manual):
    Electrostatics sSAPT0        -239.05135792 [mEh]    -150.00699181 [kcal/mol]    -627.62925374 [kJ/mol]
    Exchange sSAPT0               657.23767708 [mEh]     412.42286889 [kcal/mol]    1725.57728345 [kJ/mol]
    Induction sSAPT0             -116.91755421 [mEh]     -73.36687292 [kcal/mol]    -306.96699629 [kJ/mol]
    Dispersion sSAPT0             -66.38182133 [mEh]     -41.65522177 [kcal/mol]    -174.28544790 [kJ/mol]
  Total sSAPT0                    234.88694362 [mEh]     147.39378239 [kcal/mol]     616.69558551 [kJ/mol]
  --------------------------------------------------------------------------------------------------------

*** Psi4 exiting successfully. Buy a developer a beer!
