                               Psi4 1.3.2 release

  ==> Input File <==

--------------------------------------------------------------------------
#psi4
#
memory 32 gb

molecule  {
0 1
  C       -1.9521150     0.2323370    -0.0000010
  H       -3.0450720     0.2485030     0.0000010
  O       -1.2823360     1.2482650     0.0000000
  O       -1.5045270    -1.0066940    -0.0000010
  H       -0.5061810    -1.0124010    -0.0000010
--
0 1
  C        1.9538260    -0.2466240     0.0000030
  H        3.0365220    -0.4186500    -0.0000010
  O        1.1644370    -1.1897570     0.0000000
  N        1.6089930     1.0465280     0.0000010
  H        0.6235880     1.2978480     0.0000000
  H        2.3192070     1.7534080    -0.0000010
units angstrom
no_reorient  #important for SAPT in psi4, default
symmetry c1  #important for SAPT in psi4, default
}

set {
basis aug-cc-pVDZ
scf_type DF
freeze_core True
}
energy('sapt2+')
--------------------------------------------------------------------------

  //              Dimer HF             //
    Molecular point group: c1
  Charge       = 0
  Multiplicity = 1
  Basis Set: AUG-CC-PVDZ
    Blend: AUG-CC-PVDZ
  Basis Set: (AUG-CC-PVDZ AUX)
    Blend: AUG-CC-PVDZ-JKFIT
  @DF-RHF Final Energy:  -357.77971340605063
    Total Energy =                       -357.7797134060506323
  //            Monomer A HF           //
    Molecular point group: c1
  Multiplicity = 1
  Basis Set: AUG-CC-PVDZ
    Blend: AUG-CC-PVDZ
  Basis Set: (AUG-CC-PVDZ AUX)
    Blend: AUG-CC-PVDZ-JKFIT
  @DF-RHF Final Energy:  -188.79455490494186
    Total Energy =                       -188.7945549049418617
  //            Monomer B HF           //
    Molecular point group: c1

    Geometry (in Angstrom), charge = 0, multiplicity = 1:

       Center              X                  Y                   Z               Mass
    ------------   -----------------  -----------------  -----------------  -----------------
      Gh(C)          -1.941655222002     0.219150337033    -0.000001219633    12.000000000000
      Gh(H)          -3.034612222002     0.235316337033     0.000000780367     1.007825032230
      Gh(O)          -1.271876222002     1.235078337033    -0.000000219633    15.994914619570
      Gh(O)          -1.494067222002    -1.019880662967    -0.000001219633    15.994914619570
      Gh(H)          -0.495721222002    -1.025587662967    -0.000001219633     1.007825032230
         C            1.964285777998    -0.259810662967     0.000002780367    12.000000000000
         H            3.046981777998    -0.431836662967    -0.000001219633     1.007825032230
         O            1.174896777998    -1.202943662967    -0.000000219633    15.994914619570
         N            1.619452777998     1.033341337033     0.000000780367    14.003074004430
         H            0.634047777998     1.284661337033    -0.000000219633     1.007825032230
         H            2.329666777998     1.740221337033    -0.000001219633     1.007825032230

  Charge       = 0
  Multiplicity = 1
  Basis Set: AUG-CC-PVDZ
    Blend: AUG-CC-PVDZ
  Basis Set: (AUG-CC-PVDZ AUX)
    Blend: AUG-CC-PVDZ-JKFIT

    Orbital Energies [Eh]
    ---------------------

    Doubly Occupied:

       1A    -20.536749     2A    -15.609824     3A    -11.365536
       4A     -1.380483     5A     -1.231116     6A     -0.856688
       7A     -0.759937     8A     -0.678245     9A     -0.603388
      10A     -0.571781    11A     -0.433997    12A     -0.420580

  @DF-RHF Final Energy:  -168.96242252240444

   => Energetics <=

    Nuclear Repulsion Energy =             71.2263167891488962
    One-Electron Energy =                -371.4808275861158222
    Two-Electron Energy =                 131.2920882745625022
    Total Energy =                       -168.9624225224044380

  Dipole Moment: [D]
     X:     1.8660      Y:     4.0781      Z:    -0.0000     Total:     4.4848

    SAPT Results
  --------------------------------------------------------------------------------------------------------
    Electrostatics                -44.04585808 [mEh]     -27.63919322 [kcal/mol]    -115.64238444 [kJ/mol]
      Elst10,r                    -45.69168804 [mEh]     -28.67196712 [kcal/mol]    -119.96351043 [kJ/mol]
      Elst12,r                      1.64582997 [mEh]       1.03277390 [kcal/mol]       4.32112598 [kJ/mol]

    Exchange                       51.12256614 [mEh]      32.07989458 [kcal/mol]     134.22227891 [kJ/mol]
      Exch10                       43.15556141 [mEh]      27.08052363 [kcal/mol]     113.30491086 [kJ/mol]
      Exch10(S^2)                  42.51474661 [mEh]      26.67840627 [kcal/mol]     111.62245184 [kJ/mol]
      Exch11(S^2)                  -0.18564457 [mEh]      -0.11649373 [kcal/mol]      -0.48740976 [kJ/mol]
      Exch12(S^2)                   8.15264931 [mEh]       5.11586468 [kcal/mol]      21.40477781 [kJ/mol]

    Induction                     -22.17473055 [mEh]     -13.91485350 [kcal/mol]     -58.21974705 [kJ/mol]
      Ind20,r                     -23.54416928 [mEh]     -14.77418928 [kcal/mol]     -61.81520793 [kJ/mol]
      Ind22                        -3.98603248 [mEh]      -2.50127314 [kcal/mol]     -10.46532684 [kJ/mol]
      Exch-Ind20,r                 11.87921833 [mEh]       7.45432204 [kcal/mol]      31.18888343 [kJ/mol]
      Exch-Ind22                    2.01115399 [mEh]       1.26201819 [kcal/mol]       5.28028409 [kJ/mol]
      delta HF,r (2)               -8.53490112 [mEh]      -5.35573131 [kcal/mol]     -22.40837979 [kJ/mol]

    Dispersion                    -12.56658324 [mEh]      -7.88565004 [kcal/mol]     -32.99355976 [kJ/mol]
      Disp20                      -13.16364163 [mEh]      -8.26030983 [kcal/mol]     -34.56113634 [kJ/mol]
      Disp21                        1.22439733 [mEh]       0.76832092 [kcal/mol]       3.21465474 [kJ/mol]
      Disp22 (SDQ)                 -0.83160586 [mEh]      -0.52184056 [kcal/mol]      -2.18338089 [kJ/mol]
      Disp22 (T)                   -2.14285574 [mEh]      -1.34466228 [kcal/mol]      -5.62606698 [kJ/mol]
      Est. Disp22 (T)              -2.35351773 [mEh]      -1.47685467 [kcal/mol]      -6.17915994 [kJ/mol]
      Exch-Disp20                   2.55778465 [mEh]       1.60503410 [kcal/mol]       6.71546266 [kJ/mol]

  Total HF                        -22.73597870 [mEh]     -14.26704203 [kcal/mol]     -59.69330386 [kJ/mol]
  Total SAPT0                     -33.34183569 [mEh]     -20.92231777 [kcal/mol]     -87.53897754 [kJ/mol]
  Total SAPT2                     -25.70387947 [mEh]     -16.12942788 [kcal/mol]     -67.48552626 [kJ/mol]
  Total SAPT2+                    -27.66460573 [mEh]     -17.35980219 [kcal/mol]     -72.63341235 [kJ/mol]

  Special recipe for scaled SAPT0 (see Manual):
    Electrostatics sSAPT0         -45.69168804 [mEh]     -28.67196712 [kcal/mol]    -119.96351043 [kJ/mol]
    Exchange sSAPT0                43.15556141 [mEh]      27.08052363 [kcal/mol]     113.30491086 [kJ/mol]
    Induction sSAPT0              -19.65455692 [mEh]     -12.33342067 [kcal/mol]     -51.60303210 [kJ/mol]
    Dispersion sSAPT0             -10.48844627 [mEh]      -6.58159940 [kcal/mol]     -27.53741188 [kJ/mol]
  Total sSAPT0                    -32.67912983 [mEh]     -20.50646356 [kcal/mol]     -85.79904354 [kJ/mol]
  --------------------------------------------------------------------------------------------------------

*** Psi4 exiting successfully. Buy a developer a beer!
