                               Psi4 1.3.2 release

  ==> Input File <==

--------------------------------------------------------------------------
#psi4
#
memory 32 gb

molecule  {
0 1
  C       -2.0482690     0.2828850     0.0000130
  H       -3.1457830     0.3491130    -0.0000080
  O       -1.3512910     1.2933720    -0.0000010
  N       -1.5923150    -0.9782630     0.0000040
  H       -0.5837530    -1.1752650     0.0000030
  H       -2.2528990    -1.7321960    -0.0000070
--
0 1
  C        1.4797339    -0.1911630     0.0000041
  H        2.5696459    -0.2174310     0.0000001
  N        0.7478279    -1.2528220     0.0000021
  H        1.3475929    -2.0691410    -0.0000039
  N        0.9675589     1.0537790     0.0000001
  H       -0.0390811     1.2037550    -0.0000009
  H        1.5834459     1.8413320    -0.0000049
units angstrom
no_reorient  #important for SAPT in psi4, default
symmetry c1  #important for SAPT in psi4, default
}

set {
basis aug-cc-pVDZ
scf_type DF
freeze_core True
}
energy('sapt2+')
--------------------------------------------------------------------------

  //              Dimer HF             //
    Molecular point group: c1
  Charge       = 0
  Multiplicity = 1
  Basis Set: AUG-CC-PVDZ
    Blend: AUG-CC-PVDZ
  Basis Set: (AUG-CC-PVDZ AUX)
    Blend: AUG-CC-PVDZ-JKFIT
  @DF-RHF Final Energy:  -318.03352431818985
    Total Energy =                       -318.0335243181898477
  //            Monomer A HF           //
    Molecular point group: c1
  Multiplicity = 1
  Basis Set: AUG-CC-PVDZ
    Blend: AUG-CC-PVDZ
  Basis Set: (AUG-CC-PVDZ AUX)
    Blend: AUG-CC-PVDZ-JKFIT
  @DF-RHF Final Energy:  -168.96246836823400
    Total Energy =                       -168.9624683682339992
  //            Monomer B HF           //
    Molecular point group: c1

    Geometry (in Angstrom), charge = 0, multiplicity = 1:

       Center              X                  Y                   Z               Mass
    ------------   -----------------  -----------------  -----------------  -----------------
      Gh(C)          -1.742429548315     0.243717455243     0.000010145091    12.000000000000
      Gh(H)          -2.839943548315     0.309945455243    -0.000010854909     1.007825032230
      Gh(O)          -1.045451548315     1.254204455243    -0.000003854909    15.994914619570
      Gh(N)          -1.286475548315    -1.017430544757     0.000001145091    14.003074004430
      Gh(H)          -0.277913548315    -1.214432544757     0.000000145091     1.007825032230
      Gh(H)          -1.947059548315    -1.771363544757    -0.000009854909     1.007825032230
         C            1.785573351685    -0.230330544757     0.000001245091    12.000000000000
         H            2.875485351685    -0.256598544757    -0.000002754909     1.007825032230
         N            1.053667351685    -1.291989544757    -0.000000754909    14.003074004430
         H            1.653432351685    -2.108308544757    -0.000006754909     1.007825032230
         N            1.273398351685     1.014611455243    -0.000002754909    14.003074004430
         H            0.266758351685     1.164587455243    -0.000003754909     1.007825032230
         H            1.889285351685     1.802164455243    -0.000007754909     1.007825032230

  Charge       = 0
  Multiplicity = 1
  Basis Set: AUG-CC-PVDZ
    Blend: AUG-CC-PVDZ
  Basis Set: (AUG-CC-PVDZ AUX)
    Blend: AUG-CC-PVDZ-JKFIT

    Orbital Energies [Eh]
    ---------------------

    Doubly Occupied:

       1A    -15.588161     2A    -15.528717     3A    -11.322921
       4A     -1.262301     5A     -1.139923     6A     -0.832229
       7A     -0.747448     8A     -0.640405     9A     -0.617109
      10A     -0.529252    11A     -0.419254    12A     -0.358357

  @DF-RHF Final Energy:  -149.10945524390328

   => Energetics <=

    Nuclear Repulsion Energy =             72.2208400742530472
    One-Electron Energy =                -344.6884393510000564
    Two-Electron Energy =                 123.3581440328437395
    Total Energy =                       -149.1094552439032839

  Dipole Moment: [D]
     X:     2.1485      Y:     2.4659      Z:    -0.0000     Total:     3.2706

    SAPT Results
  --------------------------------------------------------------------------------------------------------
    Electrostatics               -132.95422896 [mEh]     -83.43003825 [kcal/mol]    -349.07128004 [kJ/mol]
      Elst10,r                   -131.67309104 [mEh]     -82.62611207 [kcal/mol]    -345.70765289 [kJ/mol]
      Elst12,r                     -1.28113792 [mEh]      -0.80392618 [kcal/mol]      -3.36362715 [kJ/mol]

    Exchange                      277.12329002 [mEh]     173.89748989 [kcal/mol]     727.58709772 [kJ/mol]
      Exch10                      261.39961148 [mEh]     164.03073265 [kcal/mol]     686.30458539 [kJ/mol]
      Exch10(S^2)                 243.11461899 [mEh]     152.55672663 [kcal/mol]     638.29734422 [kJ/mol]
      Exch11(S^2)                  -0.01427592 [mEh]      -0.00895827 [kcal/mol]      -0.03748141 [kJ/mol]
      Exch12(S^2)                  15.73795446 [mEh]       9.87571552 [kcal/mol]      41.31999374 [kJ/mol]

    Induction                     -98.08246005 [mEh]     -61.54767289 [kcal/mol]    -257.51546337 [kJ/mol]
      Ind20,r                    -127.51833832 [mEh]     -80.01896538 [kcal/mol]    -334.79935113 [kJ/mol]
      Ind22                       -15.53498226 [mEh]      -9.74834854 [kcal/mol]     -40.78709031 [kJ/mol]
      Exch-Ind20,r                 72.06824878 [mEh]      45.22350887 [kcal/mol]     189.21516112 [kJ/mol]
      Exch-Ind22                    8.77974871 [mEh]       5.50937549 [kcal/mol]      23.05122706 [kJ/mol]
      delta HF,r (2)              -35.87713696 [mEh]     -22.51324334 [kcal/mol]     -94.19541011 [kJ/mol]

    Dispersion                    -36.94754972 [mEh]     -23.18493748 [kcal/mol]     -97.00577843 [kJ/mol]
      Disp20                      -46.07323998 [mEh]     -28.91139457 [kcal/mol]    -120.96527489 [kJ/mol]
      Disp21                        6.48357000 [mEh]       4.06850160 [kcal/mol]      17.02261068 [kJ/mol]
      Disp22 (SDQ)                 -1.49460724 [mEh]      -0.93788020 [kcal/mol]      -3.92409077 [kJ/mol]
      Disp22 (T)                   -6.20444681 [mEh]      -3.89334915 [kcal/mol]     -16.28977286 [kJ/mol]
      Est. Disp22 (T)              -6.61522422 [mEh]      -4.15111587 [kcal/mol]     -17.36826880 [kJ/mol]
      Exch-Disp20                  10.75195172 [mEh]       6.74695157 [kcal/mol]      28.22924536 [kJ/mol]

  Total HF                         38.39929395 [mEh]      24.09592074 [kcal/mol]     100.81733237 [kJ/mol]
  Total SAPT0                       3.07800569 [mEh]       1.93147773 [kcal/mol]       8.08130283 [kJ/mol]
  Total SAPT2                      10.76531276 [mEh]       6.75533575 [kcal/mol]      28.26432476 [kJ/mol]
  Total SAPT2+                      9.13905130 [mEh]       5.73484127 [kcal/mol]      23.99457587 [kJ/mol]

  Special recipe for scaled SAPT0 (see Manual):
    Electrostatics sSAPT0        -131.67309104 [mEh]     -82.62611207 [kcal/mol]    -345.70765289 [kJ/mol]
    Exchange sSAPT0               261.39961148 [mEh]     164.03073265 [kcal/mol]     686.30458539 [kJ/mol]
    Induction sSAPT0              -73.81248433 [mEh]     -46.31803320 [kcal/mol]    -193.79465090 [kJ/mol]
    Dispersion sSAPT0             -32.70824208 [mEh]     -20.52473177 [kcal/mol]     -85.87547774 [kJ/mol]
  Total sSAPT0                     23.20579404 [mEh]      14.56185561 [kcal/mol]      60.92680386 [kJ/mol]
  --------------------------------------------------------------------------------------------------------

*** Psi4 exiting successfully. Buy a developer a beer!
