                               Psi4 1.3.2 release

  ==> Input File <==

--------------------------------------------------------------------------
#psi4
#
memory 32 gb

molecule  {
0 1
  C       -2.0482690     0.2828850     0.0000130
  H       -3.1457830     0.3491130    -0.0000080
  O       -1.3512910     1.2933720    -0.0000010
  N       -1.5923150    -0.9782630     0.0000040
  H       -0.5837530    -1.1752650     0.0000030
  H       -2.2528990    -1.7321960    -0.0000070
--
0 1
  C        2.0621080    -0.2554320     0.0000040
  H        3.1520200    -0.2817000     0.0000000
  N        1.3302020    -1.3170910     0.0000020
  H        1.9299670    -2.1334100    -0.0000040
  N        1.5499330     0.9895100     0.0000000
  H        0.5432930     1.1394860    -0.0000010
  H        2.1658200     1.7770630    -0.0000050
units angstrom
no_reorient  #important for SAPT in psi4, default
symmetry c1  #important for SAPT in psi4, default
}

set {
basis aug-cc-pVDZ
scf_type DF
freeze_core True
}
energy('sapt2+')
--------------------------------------------------------------------------

  //              Dimer HF             //
    Molecular point group: c1
  Charge       = 0
  Multiplicity = 1
  Basis Set: AUG-CC-PVDZ
    Blend: AUG-CC-PVDZ
  Basis Set: (AUG-CC-PVDZ AUX)
    Blend: AUG-CC-PVDZ-JKFIT
  @DF-RHF Final Energy:  -318.08936596334195
    Total Energy =                       -318.0893659633419475
  //            Monomer A HF           //
    Molecular point group: c1
  Multiplicity = 1
  Basis Set: AUG-CC-PVDZ
    Blend: AUG-CC-PVDZ
  Basis Set: (AUG-CC-PVDZ AUX)
    Blend: AUG-CC-PVDZ-JKFIT
  @DF-RHF Final Energy:  -168.96204972623093
    Total Energy =                       -168.9620497262309300
  //            Monomer B HF           //
    Molecular point group: c1

    Geometry (in Angstrom), charge = 0, multiplicity = 1:

       Center              X                  Y                   Z               Mass
    ------------   -----------------  -----------------  -----------------  -----------------
      Gh(C)          -2.030399260614     0.275496899830     0.000010194538    12.000000000000
      Gh(H)          -3.127913260614     0.341724899830    -0.000010805462     1.007825032230
      Gh(O)          -1.333421260614     1.285983899830    -0.000003805462    15.994914619570
      Gh(N)          -1.574445260614    -0.985651100170     0.000001194538    14.003074004430
      Gh(H)          -0.565883260614    -1.182653100170     0.000000194538     1.007825032230
      Gh(H)          -2.235029260614    -1.739584100170    -0.000009805462     1.007825032230
         C            2.079977739386    -0.262820100170     0.000001194538    12.000000000000
         H            3.169889739386    -0.289088100170    -0.000002805462     1.007825032230
         N            1.348071739386    -1.324479100170    -0.000000805462    14.003074004430
         H            1.947836739386    -2.140798100170    -0.000006805462     1.007825032230
         N            1.567802739386     0.982121899830    -0.000002805462    14.003074004430
         H            0.561162739386     1.132097899830    -0.000003805462     1.007825032230
         H            2.183689739386     1.769674899830    -0.000007805462     1.007825032230

  Charge       = 0
  Multiplicity = 1
  Basis Set: AUG-CC-PVDZ
    Blend: AUG-CC-PVDZ
  Basis Set: (AUG-CC-PVDZ AUX)
    Blend: AUG-CC-PVDZ-JKFIT

    Orbital Energies [Eh]
    ---------------------

    Doubly Occupied:

       1A    -15.588404     2A    -15.528866     3A    -11.323060
       4A     -1.262342     5A     -1.139972     6A     -0.832237
       7A     -0.747450     8A     -0.640362     9A     -0.617076
      10A     -0.529299    11A     -0.419315    12A     -0.358412

  @DF-RHF Final Energy:  -149.10897382944614

   => Energetics <=

    Nuclear Repulsion Energy =             72.2208400742530472
    One-Electron Energy =                -344.6860330120262006
    Two-Electron Energy =                 123.3562191083270250
    Total Energy =                       -149.1089738294461426

  Dipole Moment: [D]
     X:     2.1505      Y:     2.4652      Z:    -0.0000     Total:     3.2714

    SAPT Results
  --------------------------------------------------------------------------------------------------------
    Electrostatics                -40.72325647 [mEh]     -25.55422924 [kcal/mol]    -106.91889513 [kJ/mol]
      Elst10,r                    -41.04818818 [mEh]     -25.75812697 [kcal/mol]    -107.77200322 [kJ/mol]
      Elst12,r                      0.32493171 [mEh]       0.20389773 [kcal/mol]       0.85310810 [kJ/mol]

    Exchange                       44.90250893 [mEh]      28.17674975 [kcal/mol]     117.89152094 [kJ/mol]
      Exch10                       38.88510766 [mEh]      24.40077345 [kcal/mol]     102.09283610 [kJ/mol]
      Exch10(S^2)                  38.32900030 [mEh]      24.05181081 [kcal/mol]     100.63277642 [kJ/mol]
      Exch11(S^2)                  -0.02196038 [mEh]      -0.01378035 [kcal/mol]      -0.05765698 [kJ/mol]
      Exch12(S^2)                   6.03936165 [mEh]       3.78975665 [kcal/mol]      15.85634182 [kJ/mol]

    Induction                     -17.48747405 [mEh]     -10.97355564 [kcal/mol]     -45.91335679 [kJ/mol]
      Ind20,r                     -19.21648163 [mEh]     -12.05852427 [kcal/mol]     -50.45286556 [kJ/mol]
      Ind22                        -2.70177051 [mEh]      -1.69538659 [kcal/mol]      -7.09349750 [kJ/mol]
      Exch-Ind20,r                  9.91221956 [mEh]       6.22001168 [kcal/mol]      26.02452887 [kJ/mol]
      Exch-Ind22                    1.39362361 [mEh]       0.87451202 [kcal/mol]       3.65895829 [kJ/mol]
      delta HF,r (2)               -6.87506508 [mEh]      -4.31416847 [kcal/mol]     -18.05048088 [kJ/mol]

    Dispersion                    -11.95736895 [mEh]      -7.50336229 [kcal/mol]     -31.39406784 [kJ/mol]
      Disp20                      -12.92804408 [mEh]      -8.11247014 [kcal/mol]     -33.94257505 [kJ/mol]
      Disp21                        1.06813263 [mEh]       0.67026334 [kcal/mol]       2.80438183 [kJ/mol]
      Disp22 (SDQ)                 -0.41746465 [mEh]      -0.26196302 [kcal/mol]      -1.09605327 [kJ/mol]
      Disp22 (T)                   -1.95717422 [mEh]      -1.22814537 [kcal/mol]      -5.13856022 [kJ/mol]
      Est. Disp22 (T)              -2.17826069 [mEh]      -1.36687922 [kcal/mol]      -5.71902264 [kJ/mol]
      Exch-Disp20                   2.49826784 [mEh]       1.56768674 [kcal/mol]       6.55920130 [kJ/mol]

  Total HF                        -18.34240766 [mEh]     -11.51003458 [kcal/mol]     -48.15798469 [kJ/mol]
  Total SAPT0                     -28.77218391 [mEh]     -18.05481798 [kcal/mol]     -75.54135844 [kJ/mol]
  Total SAPT2                     -23.73799783 [mEh]     -14.89581853 [kcal/mol]     -62.32410472 [kJ/mol]
  Total SAPT2+                    -25.26559054 [mEh]     -15.85439742 [kcal/mol]     -66.33479881 [kJ/mol]

  Special recipe for scaled SAPT0 (see Manual):
    Electrostatics sSAPT0         -41.04818818 [mEh]     -25.75812697 [kcal/mol]    -107.77200322 [kJ/mol]
    Exchange sSAPT0                38.88510766 [mEh]      24.40077345 [kcal/mol]     102.09283610 [kJ/mol]
    Induction sSAPT0              -15.74159426 [mEh]      -9.87799953 [kcal/mol]     -41.32955004 [kJ/mol]
    Dispersion sSAPT0             -10.31945040 [mEh]      -6.47555289 [kcal/mol]     -27.09371329 [kJ/mol]
  Total sSAPT0                    -28.22412518 [mEh]     -17.71090594 [kcal/mol]     -74.10243045 [kJ/mol]
  --------------------------------------------------------------------------------------------------------

*** Psi4 exiting successfully. Buy a developer a beer!
