                               Psi4 1.3.2 release

  ==> Input File <==

--------------------------------------------------------------------------
#psi4
#
memory 32 gb

molecule  {
0 1
  C        2.1022740    -0.1999910     0.0000010
  H        3.1931760    -0.2048250     0.0000000
  N        1.3929100    -1.2773340     0.0000000
  H        2.0119970    -2.0793170    -0.0000010
  N        1.5658380     1.0343930     0.0000000
  H        0.5512430     1.1716950     0.0000000
  H        2.1722770     1.8295020    -0.0000010
--
0 1
  C       -2.2502114     0.2121381     0.0000000
  H       -3.3411134     0.2169721     0.0000000
  N       -1.5408474     1.2894811     0.0000000
  H       -2.1599344     2.0914640     0.0000000
  N       -1.7137754    -1.0222459     0.0000000
  H       -0.6991804    -1.1595479     0.0000000
  H       -2.3202144    -1.8173549     0.0000000
units angstrom
no_reorient  #important for SAPT in psi4, default
symmetry c1  #important for SAPT in psi4, default
}

set {
basis aug-cc-pVDZ
scf_type DF
freeze_core True
}
energy('sapt2+')
--------------------------------------------------------------------------

  //              Dimer HF             //
    Molecular point group: c1
  Charge       = 0
  Multiplicity = 1
  Basis Set: AUG-CC-PVDZ
    Blend: AUG-CC-PVDZ
  Basis Set: (AUG-CC-PVDZ AUX)
    Blend: AUG-CC-PVDZ-JKFIT
  @DF-RHF Final Energy:  -298.23457319674969
    Total Energy =                       -298.2345731967496931
  //            Monomer A HF           //
    Molecular point group: c1
  Multiplicity = 1
  Basis Set: AUG-CC-PVDZ
    Blend: AUG-CC-PVDZ
  Basis Set: (AUG-CC-PVDZ AUX)
    Blend: AUG-CC-PVDZ-JKFIT
  @DF-RHF Final Energy:  -149.10852031283321
    Total Energy =                       -149.1085203128332068
  //            Monomer B HF           //
    Molecular point group: c1

    Geometry (in Angstrom), charge = 0, multiplicity = 1:

       Center              X                  Y                   Z               Mass
    ------------   -----------------  -----------------  -----------------  -----------------
      Gh(C)           2.176242700000    -0.206064548856     0.000000886638    12.000000000000
      Gh(H)           3.267144700000    -0.210898548856    -0.000000113362     1.007825032230
      Gh(N)           1.466878700000    -1.283407548856    -0.000000113362    14.003074004430
      Gh(H)           2.085965700000    -2.085390548856    -0.000001113362     1.007825032230
      Gh(N)           1.639806700000     1.028319451144    -0.000000113362    14.003074004430
      Gh(H)           0.625211700000     1.165621451144    -0.000000113362     1.007825032230
      Gh(H)           2.246245700000     1.823428451144    -0.000001113362     1.007825032230
         C           -2.176242700000     0.206064551144    -0.000000113362    12.000000000000
         H           -3.267144700000     0.210898551144    -0.000000113362     1.007825032230
         N           -1.466878700000     1.283407551144    -0.000000113362    14.003074004430
         H           -2.085965700000     2.085390451144    -0.000000113362     1.007825032230
         N           -1.639806700000    -1.028319448856    -0.000000113362    14.003074004430
         H           -0.625211700000    -1.165621448856    -0.000000113362     1.007825032230
         H           -2.246245700000    -1.823428448856    -0.000000113362     1.007825032230

  Charge       = 0
  Multiplicity = 1
  Basis Set: AUG-CC-PVDZ
    Blend: AUG-CC-PVDZ
  Basis Set: (AUG-CC-PVDZ AUX)
    Blend: AUG-CC-PVDZ-JKFIT

    Orbital Energies [Eh]
    ---------------------

    Doubly Occupied:

       1A    -15.589113     2A    -15.528798     3A    -11.323142
       4A     -1.261902     5A     -1.139667     6A     -0.831347
       7A     -0.746759     8A     -0.639960     9A     -0.616310
      10A     -0.529255    11A     -0.419333    12A     -0.358281

  @DF-RHF Final Energy:  -149.10852031404025

   => Energetics <=

    Nuclear Repulsion Energy =             72.1807090482597431
    One-Electron Energy =                -344.6107222823510483
    Two-Electron Energy =                 123.3214929200510426
    Total Energy =                       -149.1085203140402484

  Dipole Moment: [D]
     X:    -2.0978      Y:    -2.5208      Z:    -0.0000     Total:     3.2795

    SAPT Results
  --------------------------------------------------------------------------------------------------------
    Electrostatics                -32.37882264 [mEh]     -20.31801796 [kcal/mol]     -85.01058713 [kJ/mol]
      Elst10,r                    -32.22772578 [mEh]     -20.22320324 [kcal/mol]     -84.61388237 [kJ/mol]
      Elst12,r                     -0.15109686 [mEh]      -0.09481471 [kcal/mol]      -0.39670476 [kJ/mol]

    Exchange                       30.23210898 [mEh]      18.97093480 [kcal/mol]      79.37439119 [kJ/mol]
      Exch10                       26.07015107 [mEh]      16.35926678 [kcal/mol]      68.44717219 [kJ/mol]
      Exch10(S^2)                  25.80282229 [mEh]      16.19151544 [kcal/mol]      67.74530060 [kJ/mol]
      Exch11(S^2)                   0.02047466 [mEh]       0.01284805 [kcal/mol]       0.05375622 [kJ/mol]
      Exch12(S^2)                   4.14148325 [mEh]       2.59881997 [kcal/mol]      10.87346277 [kJ/mol]

    Induction                     -12.28138678 [mEh]      -7.70668655 [kcal/mol]     -32.24477654 [kJ/mol]
      Ind20,r                     -13.31104412 [mEh]      -8.35280629 [kcal/mol]     -34.94814151 [kJ/mol]
      Ind22                        -1.76549802 [mEh]      -1.10786673 [kcal/mol]      -4.63531441 [kJ/mol]
      Exch-Ind20,r                  6.47726769 [mEh]       4.06454684 [kcal/mol]      17.00606398 [kJ/mol]
      Exch-Ind22                    0.85910641 [mEh]       0.53909741 [kcal/mol]       2.25558356 [kJ/mol]
      delta HF,r (2)               -4.54121874 [mEh]      -2.84965778 [kcal/mol]     -11.92296816 [kJ/mol]

    Dispersion                     -9.70955810 [mEh]      -6.09283969 [kcal/mol]     -25.49244128 [kJ/mol]
      Disp20                      -10.37972769 [mEh]      -6.51337746 [kcal/mol]     -27.25197129 [kJ/mol]
      Disp21                        0.78792423 [mEh]       0.49442992 [kcal/mol]       2.06869479 [kJ/mol]
      Disp22 (SDQ)                 -0.22195781 [mEh]      -0.13928063 [kcal/mol]      -0.58275016 [kJ/mol]
      Disp22 (T)                   -1.56021242 [mEh]      -0.97904808 [kcal/mol]      -4.09633715 [kJ/mol]
      Est. Disp22 (T)              -1.75530893 [mEh]      -1.10147298 [kcal/mol]      -4.60856296 [kJ/mol]
      Exch-Disp20                   1.85951210 [mEh]       1.16686146 [kcal/mol]       4.88214835 [kJ/mol]

  Total HF                        -17.53256988 [mEh]     -11.00185370 [kcal/mol]     -46.03175587 [kJ/mol]
  Total SAPT0                     -26.05278546 [mEh]     -16.34836970 [kcal/mol]     -68.40157881 [kJ/mol]
  Total SAPT2                     -22.94831603 [mEh]     -14.40028572 [kcal/mol]     -60.25079543 [kJ/mol]
  Total SAPT2+                    -24.13765854 [mEh]     -15.14660941 [kcal/mol]     -63.37341376 [kJ/mol]

  Special recipe for scaled SAPT0 (see Manual):
    Electrostatics sSAPT0         -32.22772578 [mEh]     -20.22320324 [kcal/mol]     -84.61388237 [kJ/mol]
    Exchange sSAPT0                26.07015107 [mEh]      16.35926678 [kcal/mol]      68.44717219 [kJ/mol]
    Induction sSAPT0              -11.17158001 [mEh]      -7.01027229 [kcal/mol]     -29.33097927 [kJ/mol]
    Dispersion sSAPT0              -8.46181860 [mEh]      -5.30987134 [kcal/mol]     -22.21650167 [kJ/mol]
  Total sSAPT0                    -25.79097332 [mEh]     -16.18408009 [kcal/mol]     -67.71419112 [kJ/mol]
  --------------------------------------------------------------------------------------------------------

*** Psi4 exiting successfully. Buy a developer a beer!
