                               Psi4 1.3.2 release

  ==> Input File <==

--------------------------------------------------------------------------
#psi4
#
memory 32 gb

molecule  {
0 1
  C        2.1022740    -0.1999910     0.0000010
  H        3.1931760    -0.2048250     0.0000000
  N        1.3929100    -1.2773340     0.0000000
  H        2.0119970    -2.0793170    -0.0000010
  N        1.5658380     1.0343930     0.0000000
  H        0.5512430     1.1716950     0.0000000
  H        2.1722770     1.8295020    -0.0000010
--
0 1
  C       -1.5105244     0.1514028     0.0000000
  H       -2.6014264     0.1562368     0.0000000
  N       -0.8011604     1.2287458     0.0000000
  H       -1.4202474     2.0307288     0.0000000
  N       -0.9740884    -1.0829812     0.0000000
  H        0.0405066    -1.2202832     0.0000000
  H       -1.5805274    -1.8780902     0.0000000
units angstrom
no_reorient  #important for SAPT in psi4, default
symmetry c1  #important for SAPT in psi4, default
}

set {
basis aug-cc-pVDZ
scf_type DF
freeze_core True
}
energy('sapt2+')
--------------------------------------------------------------------------

  //              Dimer HF             //
    Molecular point group: c1
  Charge       = 0
  Multiplicity = 1
  Basis Set: AUG-CC-PVDZ
    Blend: AUG-CC-PVDZ
  Basis Set: (AUG-CC-PVDZ AUX)
    Blend: AUG-CC-PVDZ-JKFIT
  @DF-RHF Final Energy:  -298.17595585598752
    Total Energy =                       -298.1759558559875245
  //            Monomer A HF           //
    Molecular point group: c1
  Multiplicity = 1
  Basis Set: AUG-CC-PVDZ
    Blend: AUG-CC-PVDZ
  Basis Set: (AUG-CC-PVDZ AUX)
    Blend: AUG-CC-PVDZ-JKFIT
  @DF-RHF Final Energy:  -149.10908874916746
    Total Energy =                       -149.1090887491674550
  //            Monomer B HF           //
    Molecular point group: c1

    Geometry (in Angstrom), charge = 0, multiplicity = 1:

       Center              X                  Y                   Z               Mass
    ------------   -----------------  -----------------  -----------------  -----------------
      Gh(C)           1.806399200000    -0.175696900000     0.000000886638    12.000000000000
      Gh(H)           2.897301200000    -0.180530900000    -0.000000113362     1.007825032230
      Gh(N)           1.097035200000    -1.253039900000    -0.000000113362    14.003074004430
      Gh(H)           1.716122200000    -2.055022900000    -0.000001113362     1.007825032230
      Gh(N)           1.269963200000     1.058687100000    -0.000000113362    14.003074004430
      Gh(H)           0.255368200000     1.195989100000    -0.000000113362     1.007825032230
      Gh(H)           1.876402200000     1.853796100000    -0.000001113362     1.007825032230
         C           -1.806399200000     0.175696900000    -0.000000113362    12.000000000000
         H           -2.897301200000     0.180530900000    -0.000000113362     1.007825032230
         N           -1.097035200000     1.253039900000    -0.000000113362    14.003074004430
         H           -1.716122200000     2.055022900000    -0.000000113362     1.007825032230
         N           -1.269963200000    -1.058687100000    -0.000000113362    14.003074004430
         H           -0.255368200000    -1.195989100000    -0.000000113362     1.007825032230
         H           -1.876402200000    -1.853796100000    -0.000000113362     1.007825032230

  Charge       = 0
  Multiplicity = 1
  Basis Set: AUG-CC-PVDZ
    Blend: AUG-CC-PVDZ
  Basis Set: (AUG-CC-PVDZ AUX)
    Blend: AUG-CC-PVDZ-JKFIT

    Orbital Energies [Eh]
    ---------------------

    Doubly Occupied:

       1A    -15.588937     2A    -15.528647     3A    -11.322950
       4A     -1.261845     5A     -1.139610     6A     -0.831331
       7A     -0.746748     8A     -0.639991     9A     -0.616346
      10A     -0.529183    11A     -0.419252    12A     -0.358206

  @DF-RHF Final Energy:  -149.10908874931238

   => Energetics <=

    Nuclear Repulsion Energy =             72.1807086195704244
    One-Electron Energy =                -344.6135023734005358
    Two-Electron Energy =                 123.3237050045177199
    Total Energy =                       -149.1090887493123773

  Dipole Moment: [D]
     X:    -2.0946      Y:    -2.5218      Z:     0.0000     Total:     3.2783

    SAPT Results
  --------------------------------------------------------------------------------------------------------
    Electrostatics               -137.65157707 [mEh]     -86.37766869 [kcal/mol]    -361.40416582 [kJ/mol]
      Elst10,r                   -135.36266207 [mEh]     -84.94135285 [kcal/mol]    -355.39462031 [kJ/mol]
      Elst12,r                     -2.28891500 [mEh]      -1.43631585 [kcal/mol]      -6.00954551 [kJ/mol]

    Exchange                      283.86723790 [mEh]     178.12938108 [kcal/mol]     745.29333043 [kJ/mol]
      Exch10                      270.68512226 [mEh]     169.85747863 [kcal/mol]     710.68369057 [kJ/mol]
      Exch10(S^2)                 250.25546346 [mEh]     157.03767419 [kcal/mol]     657.04562879 [kJ/mol]
      Exch11(S^2)                   1.05267255 [mEh]       0.66056200 [kcal/mol]       2.76379141 [kJ/mol]
      Exch12(S^2)                  12.12944309 [mEh]       7.61134045 [kcal/mol]      31.84584845 [kJ/mol]

    Induction                     -99.41787081 [mEh]     -62.38565579 [kcal/mol]    -261.02158384 [kJ/mol]
      Ind20,r                    -129.36713307 [mEh]     -81.17910160 [kcal/mol]    -339.65336107 [kJ/mol]
      Ind22                       -14.05043732 [mEh]      -8.81678253 [kcal/mol]     -36.88941809 [kJ/mol]
      Exch-Ind20,r                 71.20388643 [mEh]      44.68111331 [kcal/mol]     186.94577807 [kJ/mol]
      Exch-Ind22                    7.73338420 [mEh]       4.85277185 [kcal/mol]      20.30399742 [kJ/mol]
      delta HF,r (2)              -34.93757106 [mEh]     -21.92365683 [kcal/mol]     -91.72858017 [kJ/mol]

    Dispersion                    -38.76149739 [mEh]     -24.32320683 [kcal/mol]    -101.76829737 [kJ/mol]
      Disp20                      -48.98704856 [mEh]     -30.73983707 [kcal/mol]    -128.61547829 [kJ/mol]
      Disp21                        6.85389507 [mEh]       4.30088409 [kcal/mol]      17.99489904 [kJ/mol]
      Disp22 (SDQ)                 -0.94589191 [mEh]      -0.59355614 [kcal/mol]      -2.48343888 [kJ/mol]
      Disp22 (T)                   -6.43847422 [mEh]      -4.04020357 [kcal/mol]     -16.90421173 [kJ/mol]
      Est. Disp22 (T)              -6.85016736 [mEh]      -4.29854492 [kcal/mol]     -17.98511193 [kJ/mol]
      Exch-Disp20                  11.16771538 [mEh]       7.00784720 [kcal/mol]      29.32083269 [kJ/mol]

  Total HF                         42.22164249 [mEh]      26.49448066 [kcal/mol]     110.85290709 [kJ/mol]
  Total SAPT0                       4.40230931 [mEh]       2.76249080 [kcal/mol]      11.55826149 [kJ/mol]
  Total SAPT2                       8.97845683 [mEh]       5.63406672 [kcal/mol]      23.57293517 [kJ/mol]
  Total SAPT2+                      8.03629263 [mEh]       5.04284976 [kcal/mol]      21.09928340 [kJ/mol]

  Special recipe for scaled SAPT0 (see Manual):
    Electrostatics sSAPT0        -135.36266207 [mEh]     -84.94135285 [kcal/mol]    -355.39462031 [kJ/mol]
    Exchange sSAPT0               270.68512226 [mEh]     169.85747863 [kcal/mol]     710.68369057 [kJ/mol]
    Induction sSAPT0              -74.20027184 [mEh]     -46.56137354 [kcal/mol]    -194.81278688 [kJ/mol]
    Dispersion sSAPT0             -34.85494561 [mEh]     -21.87180858 [kcal/mol]     -91.51164708 [kJ/mol]
  Total sSAPT0                     26.26724273 [mEh]      16.48294366 [kcal/mol]      68.96463629 [kJ/mol]
  --------------------------------------------------------------------------------------------------------

*** Psi4 exiting successfully. Buy a developer a beer!
