                               Psi4 1.3.2 release

  ==> Input File <==

--------------------------------------------------------------------------
#psi4
#
memory 32 gb

molecule  {
0 1
  C       -1.9521150     0.2323370    -0.0000010
  H       -3.0450720     0.2485030     0.0000010
  O       -1.2823360     1.2482650     0.0000000
  O       -1.5045270    -1.0066940    -0.0000010
  H       -0.5061810    -1.0124010    -0.0000010
--
0 1
  C        1.1197820    -0.1889040     0.0000027
  H        2.2024780    -0.3609300    -0.0000013
  O        0.3303930    -1.1320370    -0.0000003
  N        0.7749490     1.1042480     0.0000007
  H       -0.2104560     1.3555680    -0.0000003
  H        1.4851630     1.8111280    -0.0000013
units angstrom
no_reorient  #important for SAPT in psi4, default
symmetry c1  #important for SAPT in psi4, default
}

set {
basis aug-cc-pVDZ
scf_type DF
freeze_core True
}
energy('sapt2+')
--------------------------------------------------------------------------

  //              Dimer HF             //
    Molecular point group: c1
  Charge       = 0
  Multiplicity = 1
  Basis Set: AUG-CC-PVDZ
    Blend: AUG-CC-PVDZ
  Basis Set: (AUG-CC-PVDZ AUX)
    Blend: AUG-CC-PVDZ-JKFIT
  @DF-RHF Final Energy:  -357.52635588528835
    Total Energy =                       -357.5263558852883534
  //            Monomer A HF           //
    Molecular point group: c1
  Multiplicity = 1
  Basis Set: AUG-CC-PVDZ
    Blend: AUG-CC-PVDZ
  Basis Set: (AUG-CC-PVDZ AUX)
    Blend: AUG-CC-PVDZ-JKFIT
  @DF-RHF Final Energy:  -188.79595618256576
    Total Energy =                       -188.7959561825657602
  //            Monomer B HF           //
    Molecular point group: c1

    Geometry (in Angstrom), charge = 0, multiplicity = 1:

       Center              X                  Y                   Z               Mass
    ------------   -----------------  -----------------  -----------------  -----------------
      Gh(C)          -1.529141295466     0.190602318176    -0.000001071254    12.000000000000
      Gh(H)          -2.622098295466     0.206768318176     0.000000928746     1.007825032230
      Gh(O)          -0.859362295466     1.206530318176    -0.000000071254    15.994914619570
      Gh(O)          -1.081553295466    -1.048428681824    -0.000001071254    15.994914619570
      Gh(H)          -0.083207295466    -1.054135681824    -0.000001071254     1.007825032230
         C            1.542755704534    -0.230638681824     0.000002628746    12.000000000000
         H            2.625451704534    -0.402664681824    -0.000001371254     1.007825032230
         O            0.753366704534    -1.173771681824    -0.000000371254    15.994914619570
         N            1.197922704534     1.062513318176     0.000000628746    14.003074004430
         H            0.212517704534     1.313833318176    -0.000000371254     1.007825032230
         H            1.908136704534     1.769393318176    -0.000001371254     1.007825032230

  Charge       = 0
  Multiplicity = 1
  Basis Set: AUG-CC-PVDZ
    Blend: AUG-CC-PVDZ
  Basis Set: (AUG-CC-PVDZ AUX)
    Blend: AUG-CC-PVDZ-JKFIT

    Orbital Energies [Eh]
    ---------------------

    Doubly Occupied:

       1A    -20.536425     2A    -15.609546     3A    -11.365277
       4A     -1.380292     5A     -1.230974     6A     -0.856624
       7A     -0.759820     8A     -0.678236     9A     -0.603319
      10A     -0.571579    11A     -0.433991    12A     -0.420363

  @DF-RHF Final Energy:  -168.96334298849274

   => Energetics <=

    Nuclear Repulsion Energy =             71.2263167891488962
    One-Electron Energy =                -371.4864292416053217
    Two-Electron Energy =                 131.2967694639636989
    Total Energy =                       -168.9633429884927409

  Dipole Moment: [D]
     X:     1.8607      Y:     4.0737      Z:    -0.0000     Total:     4.4786

    SAPT Results
  --------------------------------------------------------------------------------------------------------
    Electrostatics               -211.32902207 [mEh]    -132.61096343 [kcal/mol]    -554.84427100 [kJ/mol]
      Elst10,r                   -209.40480997 [mEh]    -131.40350211 [kcal/mol]    -549.79225284 [kJ/mol]
      Elst12,r                     -1.92421209 [mEh]      -1.20746132 [kcal/mol]      -5.05201816 [kJ/mol]

    Exchange                      737.23336952 [mEh]     462.62092376 [kcal/mol]    1935.60594501 [kJ/mol]
      Exch10                      716.52350474 [mEh]     449.62528741 [kcal/mol]    1881.23220252 [kJ/mol]
      Exch10(S^2)                 612.41121118 [mEh]     384.29383687 [kcal/mol]    1607.88541344 [kJ/mol]
      Exch11(S^2)                 -10.07054536 [mEh]      -6.31936262 [kcal/mol]     -26.44021320 [kJ/mol]
      Exch12(S^2)                  30.78041014 [mEh]      19.31499897 [kcal/mol]      80.81395570 [kJ/mol]

    Induction                    -305.22869432 [mEh]    -191.53389736 [kcal/mol]    -801.37782654 [kJ/mol]
      Ind20,r                    -474.85049920 [mEh]    -297.97318688 [kcal/mol]   -1246.71981390 [kJ/mol]
      Ind22                       -60.28544647 [mEh]     -37.82968879 [kcal/mol]    -158.27941789 [kJ/mol]
      Exch-Ind20,r                230.25302331 [mEh]     144.48595349 [kcal/mol]     604.52922941 [kJ/mol]
      Exch-Ind22                   29.23216114 [mEh]      18.34345805 [kcal/mol]      76.74902850 [kJ/mol]
      delta HF,r (2)              -29.57793310 [mEh]     -18.56043323 [kcal/mol]     -77.65685265 [kJ/mol]

    Dispersion                    -72.14262341 [mEh]     -45.27017965 [kcal/mol]    -189.41043167 [kJ/mol]
      Disp20                      -90.41831191 [mEh]     -56.73834733 [kcal/mol]    -237.39324522 [kJ/mol]
      Disp21                       18.57126720 [mEh]      11.65364611 [kcal/mol]      48.75885531 [kJ/mol]
      Disp22 (SDQ)                 -6.34615319 [mEh]      -3.98227125 [kcal/mol]     -16.66182291 [kJ/mol]
      Disp22 (T)                  -11.86042116 [mEh]      -7.44252664 [kcal/mol]     -31.13953146 [kJ/mol]
      Est. Disp22 (T)             -12.44428681 [mEh]      -7.80890787 [kcal/mol]     -32.67247053 [kJ/mol]
      Exch-Disp20                  18.49486131 [mEh]      11.60570069 [kcal/mol]      48.55825168 [kJ/mol]

  Total HF                        232.94328577 [mEh]     146.17411867 [kcal/mol]     611.59251253 [kJ/mol]
  Total SAPT0                     161.01983517 [mEh]     101.04147203 [kcal/mol]     422.75751899 [kJ/mol]
  Total SAPT2                     148.75220253 [mEh]      93.34341633 [kcal/mol]     390.54885393 [kJ/mol]
  Total SAPT2+                    148.53302972 [mEh]      93.20588332 [kcal/mol]     389.97341580 [kJ/mol]

  Special recipe for scaled SAPT0 (see Manual):
    Electrostatics sSAPT0        -209.40480997 [mEh]    -131.40350211 [kcal/mol]    -549.79225284 [kJ/mol]
    Exchange sSAPT0               716.52350474 [mEh]     449.62528741 [kcal/mol]    1881.23220252 [kJ/mol]
    Induction sSAPT0             -135.64851027 [mEh]     -85.12072530 [kcal/mol]    -356.14511464 [kJ/mol]
    Dispersion sSAPT0             -60.79640548 [mEh]     -38.15032041 [kcal/mol]    -159.62094060 [kJ/mol]
  Total sSAPT0                    310.67377902 [mEh]     194.95073959 [kcal/mol]     815.67389443 [kJ/mol]
  --------------------------------------------------------------------------------------------------------

*** Psi4 exiting successfully. Buy a developer a beer!
