                               Psi4 1.3.2 release

  ==> Input File <==

--------------------------------------------------------------------------
#psi4
#
memory 32 gb

molecule  {
0 1
  C       -1.9521150     0.2323370    -0.0000010
  H       -3.0450720     0.2485030     0.0000010
  O       -1.2823360     1.2482650     0.0000000
  O       -1.5045270    -1.0066940    -0.0000010
  H       -0.5061810    -1.0124010    -0.0000010
--
0 1
  C        1.8148187    -0.2370040     0.0000030
  H        2.8975147    -0.4090300    -0.0000010
  O        1.0254297    -1.1801370    -0.0000001
  N        1.4699857     1.0561480     0.0000009
  H        0.4845807     1.3074680    -0.0000001
  H        2.1801997     1.7630280    -0.0000010
units angstrom
no_reorient  #important for SAPT in psi4, default
symmetry c1  #important for SAPT in psi4, default
}

set {
basis aug-cc-pVDZ
scf_type DF
freeze_core True
}
energy('sapt2+')
--------------------------------------------------------------------------

  //              Dimer HF             //
    Molecular point group: c1
  Charge       = 0
  Multiplicity = 1
  Basis Set: AUG-CC-PVDZ
    Blend: AUG-CC-PVDZ
  Basis Set: (AUG-CC-PVDZ AUX)
    Blend: AUG-CC-PVDZ-JKFIT
  @DF-RHF Final Energy:  -357.77690051210334
    Total Energy =                       -357.7769005121033388
  //            Monomer A HF           //
    Molecular point group: c1
  Multiplicity = 1
  Basis Set: AUG-CC-PVDZ
    Blend: AUG-CC-PVDZ
  Basis Set: (AUG-CC-PVDZ AUX)
    Blend: AUG-CC-PVDZ-JKFIT
  @DF-RHF Final Energy:  -188.79465483823131
    Total Energy =                       -188.7946548382313097
  //            Monomer B HF           //
    Molecular point group: c1

    Geometry (in Angstrom), charge = 0, multiplicity = 1:

       Center              X                  Y                   Z               Mass
    ------------   -----------------  -----------------  -----------------  -----------------
      Gh(C)          -1.872902917399     0.214392333890    -0.000001185571    12.000000000000
      Gh(H)          -2.965859917399     0.230558333890     0.000000814429     1.007825032230
      Gh(O)          -1.203123917399     1.230320333890    -0.000000185571    15.994914619570
      Gh(O)          -1.425314917399    -1.024638666110    -0.000001185571    15.994914619570
      Gh(H)          -0.426968917399    -1.030345666110    -0.000001185571     1.007825032230
         C            1.894030782601    -0.254948666110     0.000002814429    12.000000000000
         H            2.976726782601    -0.426974666110    -0.000001185571     1.007825032230
         O            1.104641782601    -1.198081666110    -0.000000285571    15.994914619570
         N            1.549197782601     1.038203333890     0.000000714429    14.003074004430
         H            0.563792782601     1.289523333890    -0.000000285571     1.007825032230
         H            2.259411782601     1.745083333890    -0.000001185571     1.007825032230

  Charge       = 0
  Multiplicity = 1
  Basis Set: AUG-CC-PVDZ
    Blend: AUG-CC-PVDZ
  Basis Set: (AUG-CC-PVDZ AUX)
    Blend: AUG-CC-PVDZ-JKFIT

    Orbital Energies [Eh]
    ---------------------

    Doubly Occupied:

       1A    -20.536738     2A    -15.609788     3A    -11.365493
       4A     -1.380468     5A     -1.231106     6A     -0.856679
       7A     -0.759928     8A     -0.678243     9A     -0.603387
      10A     -0.571769    11A     -0.433972    12A     -0.420567

  @DF-RHF Final Energy:  -168.96247686345839

   => Energetics <=

    Nuclear Repulsion Energy =             71.2263167891435955
    One-Electron Energy =                -371.4813130210883969
    Two-Electron Energy =                 131.2925193684864098
    Total Energy =                       -168.9624768634583916

  Dipole Moment: [D]
     X:     1.8652      Y:     4.0779      Z:    -0.0000     Total:     4.4842

    SAPT Results
  --------------------------------------------------------------------------------------------------------
    Electrostatics                -57.71255962 [mEh]     -36.21517792 [kcal/mol]    -151.52430441 [kJ/mol]
      Elst10,r                    -59.05979203 [mEh]     -37.06057902 [kcal/mol]    -155.06146262 [kJ/mol]
      Elst12,r                      1.34723241 [mEh]       0.84540110 [kcal/mol]       3.53715821 [kJ/mol]

    Exchange                       80.89506727 [mEh]      50.76242109 [kcal/mol]     212.38996985 [kJ/mol]
      Exch10                       69.96554098 [mEh]      43.90403980 [kcal/mol]     183.69450253 [kJ/mol]
      Exch10(S^2)                  68.41957945 [mEh]      42.93393430 [kcal/mol]     179.63558111 [kJ/mol]
      Exch11(S^2)                  -0.29745445 [mEh]      -0.18665549 [kcal/mol]      -0.78096656 [kJ/mol]
      Exch12(S^2)                  11.22698074 [mEh]       7.04503678 [kcal/mol]      29.47643388 [kJ/mol]

    Induction                     -33.55261577 [mEh]     -21.05458426 [kcal/mol]     -88.09238055 [kJ/mol]
      Ind20,r                     -37.16344227 [mEh]     -23.32041210 [kcal/mol]     -97.57260423 [kJ/mol]
      Ind22                        -6.24166533 [mEh]      -3.91670413 [kcal/mol]     -16.38749008 [kJ/mol]
      Exch-Ind20,r                 20.02723304 [mEh]      12.56727847 [kcal/mol]      52.58149310 [kJ/mol]
      Exch-Ind22                    3.36360893 [mEh]       2.11069647 [kcal/mol]       8.83115402 [kJ/mol]
      delta HF,r (2)              -13.53835013 [mEh]      -8.49544296 [kcal/mol]     -35.54493336 [kJ/mol]

    Dispersion                    -16.41230707 [mEh]     -10.29887818 [kcal/mol]     -43.09050629 [kJ/mol]
      Disp20                      -17.91455159 [mEh]     -11.24155084 [kcal/mol]     -47.03464871 [kJ/mol]
      Disp21                        1.87215964 [mEh]       1.17479791 [kcal/mol]       4.91535445 [kJ/mol]
      Disp22 (SDQ)                 -1.11508571 [mEh]      -0.69972685 [kcal/mol]      -2.92765713 [kJ/mol]
      Disp22 (T)                   -2.83863728 [mEh]      -1.78127179 [kcal/mol]      -7.45284115 [kJ/mol]
      Est. Disp22 (T)              -3.08795758 [mEh]      -1.93772264 [kcal/mol]      -8.10743151 [kJ/mol]
      Exch-Disp20                   3.83312817 [mEh]       2.40532424 [kcal/mol]      10.06387661 [kJ/mol]

  Total HF                        -19.76881041 [mEh]     -12.40511582 [kcal/mol]     -51.90300459 [kJ/mol]
  Total SAPT0                     -33.85023384 [mEh]     -21.24134242 [kcal/mol]     -88.87377669 [kJ/mol]
  Total SAPT2                     -24.45153154 [mEh]     -15.34356769 [kcal/mol]     -64.19748722 [kJ/mol]
  Total SAPT2+                    -26.78241519 [mEh]     -16.80621926 [kcal/mol]     -70.31722140 [kJ/mol]

  Special recipe for scaled SAPT0 (see Manual):
    Electrostatics sSAPT0         -59.05979203 [mEh]     -37.06057902 [kcal/mol]    -155.06146262 [kJ/mol]
    Exchange sSAPT0                69.96554098 [mEh]      43.90403980 [kcal/mol]     183.69450253 [kJ/mol]
    Induction sSAPT0              -29.28608919 [mEh]     -18.37729842 [kcal/mol]     -76.89061658 [kJ/mol]
    Dispersion sSAPT0             -13.81567607 [mEh]      -8.66946762 [kcal/mol]     -36.27305253 [kJ/mol]
  Total sSAPT0                    -32.19601632 [mEh]     -20.20330526 [kcal/mol]     -84.53062920 [kJ/mol]
  --------------------------------------------------------------------------------------------------------

*** Psi4 exiting successfully. Buy a developer a beer!
