                               Psi4 1.3.2 release

  ==> Input File <==

--------------------------------------------------------------------------
#psi4
#
memory 32 gb

molecule  {
0 1
  C        2.1022740    -0.1999910     0.0000010
  H        3.1931760    -0.2048250     0.0000000
  N        1.3929100    -1.2773340     0.0000000
  H        2.0119970    -2.0793170    -0.0000010
  N        1.5658380     1.0343930     0.0000000
  H        0.5512430     1.1716950     0.0000000
  H        2.1722770     1.8295020    -0.0000010
--
0 1
  C       -1.8063992     0.1756969     0.0000000
  H       -2.8973012     0.1805309     0.0000000
  N       -1.0970352     1.2530399     0.0000000
  H       -1.7161222     2.0550229     0.0000000
  N       -1.2699632    -1.0586871     0.0000000
  H       -0.2553682    -1.1959891     0.0000000
  H       -1.8764022    -1.8537961     0.0000000
units angstrom
no_reorient  #important for SAPT in psi4, default
symmetry c1  #important for SAPT in psi4, default
}

set {
basis aug-cc-pVDZ
scf_type DF
freeze_core True
}
energy('sapt2+')
--------------------------------------------------------------------------

  //              Dimer HF             //
    Molecular point group: c1
  Charge       = 0
  Multiplicity = 1
  Basis Set: AUG-CC-PVDZ
    Blend: AUG-CC-PVDZ
  Basis Set: (AUG-CC-PVDZ AUX)
    Blend: AUG-CC-PVDZ-JKFIT
  @DF-RHF Final Energy:  -298.22227281124469
    Total Energy =                       -298.2222728112446930
  //            Monomer A HF           //
    Molecular point group: c1
  Multiplicity = 1
  Basis Set: AUG-CC-PVDZ
    Blend: AUG-CC-PVDZ
  Basis Set: (AUG-CC-PVDZ AUX)
    Blend: AUG-CC-PVDZ-JKFIT
  @DF-RHF Final Energy:  -149.10879823075959
    Total Energy =                       -149.1087982307595894
  //            Monomer B HF           //
    Molecular point group: c1

    Geometry (in Angstrom), charge = 0, multiplicity = 1:

       Center              X                  Y                   Z               Mass
    ------------   -----------------  -----------------  -----------------  -----------------
      Gh(C)           1.954336600000    -0.187843950000     0.000000886638    12.000000000000
      Gh(H)           3.045238600000    -0.192677950000    -0.000000113362     1.007825032230
      Gh(N)           1.244972600000    -1.265186950000    -0.000000113362    14.003074004430
      Gh(H)           1.864059600000    -2.067169950000    -0.000001113362     1.007825032230
      Gh(N)           1.417900600000     1.046540050000    -0.000000113362    14.003074004430
      Gh(H)           0.403305600000     1.183842050000    -0.000000113362     1.007825032230
      Gh(H)           2.024339600000     1.841649050000    -0.000001113362     1.007825032230
         C           -1.954336600000     0.187843950000    -0.000000113362    12.000000000000
         H           -3.045238600000     0.192677950000    -0.000000113362     1.007825032230
         N           -1.244972600000     1.265186950000    -0.000000113362    14.003074004430
         H           -1.864059600000     2.067169950000    -0.000000113362     1.007825032230
         N           -1.417900600000    -1.046540050000    -0.000000113362    14.003074004430
         H           -0.403305600000    -1.183842050000    -0.000000113362     1.007825032230
         H           -2.024339600000    -1.841649050000    -0.000000113362     1.007825032230

  Charge       = 0
  Multiplicity = 1
  Basis Set: AUG-CC-PVDZ
    Blend: AUG-CC-PVDZ
  Basis Set: (AUG-CC-PVDZ AUX)
    Blend: AUG-CC-PVDZ-JKFIT

    Orbital Energies [Eh]
    ---------------------

    Doubly Occupied:

       1A    -15.589012     2A    -15.528678     3A    -11.322999
       4A     -1.261872     5A     -1.139642     6A     -0.831338
       7A     -0.746756     8A     -0.639974     9A     -0.616342
      10A     -0.529224    11A     -0.419288    12A     -0.358244

  @DF-RHF Final Energy:  -149.10879823083556

   => Energetics <=

    Nuclear Repulsion Energy =             72.1807086195704386
    One-Electron Energy =                -344.6122756256717139
    Two-Electron Energy =                 123.3227687752657005
    Total Energy =                       -149.1087982308355606

  Dipole Moment: [D]
     X:    -2.0959      Y:    -2.5212      Z:     0.0000     Total:     3.2786

    SAPT Results
  --------------------------------------------------------------------------------------------------------
    Electrostatics                -74.64584161 [mEh]     -46.84097279 [kcal/mol]    -195.98263015 [kJ/mol]
      Elst10,r                    -73.33151815 [mEh]     -46.01622236 [kcal/mol]    -192.53187437 [kJ/mol]
      Elst12,r                     -1.31432346 [mEh]      -0.82475042 [kcal/mol]      -3.45075577 [kJ/mol]

    Exchange                      117.30028514 [mEh]      73.60704020 [kcal/mol]     307.97185621 [kJ/mol]
      Exch10                      107.52875447 [mEh]      67.47531213 [kcal/mol]     282.31670597 [kJ/mol]
      Exch10(S^2)                 103.81902163 [mEh]      65.14741963 [kcal/mol]     272.57680375 [kJ/mol]
      Exch11(S^2)                   0.48945613 [mEh]       0.30713836 [kcal/mol]       1.28506689 [kJ/mol]
      Exch12(S^2)                   9.28207454 [mEh]       5.82458971 [kcal/mol]      24.37008336 [kJ/mol]

    Induction                     -41.50440824 [mEh]     -26.04440937 [kcal/mol]    -108.96980882 [kJ/mol]
      Ind20,r                     -49.74932447 [mEh]     -31.21817242 [kcal/mol]    -130.61683341 [kJ/mol]
      Ind22                        -6.11585450 [mEh]      -3.83775664 [kcal/mol]     -16.05717378 [kJ/mol]
      Exch-Ind20,r                 28.34894116 [mEh]      17.78922915 [kcal/mol]      74.43013475 [kJ/mol]
      Exch-Ind22                    3.48503223 [mEh]       2.18689074 [kcal/mol]       9.14995087 [kJ/mol]
      delta HF,r (2)              -17.47320266 [mEh]     -10.96460020 [kcal/mol]     -45.87588725 [kJ/mol]

    Dispersion                    -21.58211916 [mEh]     -13.54298424 [kcal/mol]     -56.66384604 [kJ/mol]
      Disp20                      -25.85556735 [mEh]     -16.22461346 [kcal/mol]     -67.88378273 [kJ/mol]
      Disp21                        2.76945793 [mEh]       1.73786109 [kcal/mol]       7.27121080 [kJ/mol]
      Disp22 (SDQ)                 -0.47630050 [mEh]      -0.29888307 [kcal/mol]      -1.25052678 [kJ/mol]
      Disp22 (T)                   -3.64870582 [mEh]      -2.28959747 [kcal/mol]      -9.57967582 [kJ/mol]
      Est. Disp22 (T)              -3.93078202 [mEh]      -2.46660296 [kcal/mol]     -10.32026678 [kJ/mol]
      Exch-Disp20                   5.91107278 [mEh]       3.70925417 [kcal/mol]      15.51951945 [kJ/mol]

  Total HF                         -4.67634965 [mEh]      -2.93445371 [kcal/mol]     -12.27775431 [kJ/mol]
  Total SAPT0                     -24.62084422 [mEh]     -15.44981300 [kcal/mol]     -64.64201760 [kJ/mol]
  Total SAPT2                     -18.79445928 [mEh]     -11.79370125 [kcal/mol]     -49.34484604 [kJ/mol]
  Total SAPT2+                    -20.43208386 [mEh]     -12.82132619 [kcal/mol]     -53.64442880 [kJ/mol]

  Special recipe for scaled SAPT0 (see Manual):
    Electrostatics sSAPT0         -73.33151815 [mEh]     -46.01622236 [kcal/mol]    -192.53187437 [kJ/mol]
    Exchange sSAPT0               107.52875447 [mEh]      67.47531213 [kcal/mol]     282.31670597 [kJ/mol]
    Induction sSAPT0              -35.72475094 [mEh]     -22.41761966 [kcal/mol]     -93.79532066 [kJ/mol]
    Dispersion sSAPT0             -19.28792709 [mEh]     -12.10335698 [kcal/mol]     -50.64044559 [kJ/mol]
  Total sSAPT0                    -20.81544170 [mEh]     -13.06188687 [kcal/mol]     -54.65093466 [kJ/mol]
  --------------------------------------------------------------------------------------------------------

*** Psi4 exiting successfully. Buy a developer a beer!
