                               Psi4 1.3.2 release

  ==> Input File <==

--------------------------------------------------------------------------
#psi4
#
memory 32 gb

molecule  {
0 1
  C        1.9047060    -0.1798760     0.0000010
  H        2.9930900    -0.2590830    -0.0000010
  O        1.1798480    -1.1602640     0.0000000
  O        1.5170880     1.0770050     0.0000000
  H        0.5236580     1.1098660     0.0000010
--
0 1
  C       -1.0956447     0.1548752    -0.0000010
  H       -2.1840347     0.2340172     0.0000000
  O       -0.3708457     1.1353072     0.0000000
  O       -0.7079447    -1.1019798     0.0000000
  H        0.2855013    -1.1347798     0.0000010
units angstrom
no_reorient  #important for SAPT in psi4, default
symmetry c1  #important for SAPT in psi4, default
}

set {
basis aug-cc-pVDZ
scf_type DF
freeze_core True
}
energy('sapt2+')
--------------------------------------------------------------------------

  //              Dimer HF             //
    Molecular point group: c1
  Charge       = 0
  Multiplicity = 1
  Basis Set: AUG-CC-PVDZ
    Blend: AUG-CC-PVDZ
  Basis Set: (AUG-CC-PVDZ AUX)
    Blend: AUG-CC-PVDZ-JKFIT
  @DF-RHF Final Energy:  -377.34464890327899
    Total Energy =                       -377.3446489032789941
  //            Monomer A HF           //
    Molecular point group: c1
  Multiplicity = 1
  Basis Set: AUG-CC-PVDZ
    Blend: AUG-CC-PVDZ
  Basis Set: (AUG-CC-PVDZ AUX)
    Blend: AUG-CC-PVDZ-JKFIT
  @DF-RHF Final Energy:  -188.79622904115266
    Total Energy =                       -188.7962290411526567
  //            Monomer B HF           //
    Molecular point group: c1

    Geometry (in Angstrom), charge = 0, multiplicity = 1:

       Center              X                  Y                   Z               Mass
    ------------   -----------------  -----------------  -----------------  -----------------
      Gh(C)           1.500170344043    -0.167388009567     0.000000989047    12.000000000000
      Gh(H)           2.588554344043    -0.246595009567    -0.000001010953     1.007825032230
      Gh(O)           0.775312344043    -1.147776009567    -0.000000010953    15.994914619570
      Gh(O)           1.112552344043     1.089492990433    -0.000000010953    15.994914619570
      Gh(H)           0.119122344043     1.122353990433     0.000000989047     1.007825032230
         C           -1.500180355957     0.167363190433    -0.000001010953    12.000000000000
         H           -2.588570355957     0.246505190433    -0.000000010953     1.007825032230
         O           -0.775381355957     1.147795190433    -0.000000010953    15.994914619570
         O           -1.112480355957    -1.089491809567    -0.000000010953    15.994914619570
         H           -0.119034355957    -1.122291809567     0.000000989047     1.007825032230

  Charge       = 0
  Multiplicity = 1
  Basis Set: AUG-CC-PVDZ
    Blend: AUG-CC-PVDZ
  Basis Set: (AUG-CC-PVDZ AUX)
    Blend: AUG-CC-PVDZ-JKFIT

    Orbital Energies [Eh]
    ---------------------

    Doubly Occupied:

       1A    -20.646748     2A    -20.572352     3A    -11.406454
       4A     -1.486717     5A     -1.373765     6A     -0.903897
       7A     -0.732284     8A     -0.713741     9A     -0.643648
      10A     -0.597839    11A     -0.490117    12A     -0.470058

  @DF-RHF Final Energy:  -188.79622795003800

   => Energetics <=

    Nuclear Repulsion Energy =             70.1580372184758971
    One-Electron Energy =                -397.8332873069039124
    Two-Electron Energy =                 138.8790221383900132
    Total Energy =                       -188.7962279500380021

  Dipole Moment: [D]
     X:    -0.4840      Y:    -1.9902      Z:    -0.0000     Total:     2.0482

    SAPT Results
  --------------------------------------------------------------------------------------------------------
    Electrostatics               -216.63829244 [mEh]    -135.94258089 [kcal/mol]    -568.78375843 [kJ/mol]
      Elst10,r                   -212.60511113 [mEh]    -133.41172141 [kcal/mol]    -558.19464236 [kJ/mol]
      Elst12,r                     -4.03318131 [mEh]      -2.53085948 [kcal/mol]     -10.58911607 [kJ/mol]

    Exchange                      803.64816899 [mEh]     504.29683963 [kcal/mol]    2109.97797700 [kJ/mol]
      Exch10                      779.39492297 [mEh]     489.07769798 [kcal/mol]    2046.30108833 [kJ/mol]
      Exch10(S^2)                 665.91345842 [mEh]     417.86700387 [kcal/mol]    1748.35554420 [kJ/mol]
      Exch11(S^2)                 -13.94786703 [mEh]      -8.75241870 [kcal/mol]     -36.62011984 [kJ/mol]
      Exch12(S^2)                  38.20111306 [mEh]      23.97156035 [kcal/mol]     100.29700851 [kJ/mol]

    Induction                    -356.10446985 [mEh]    -223.45892849 [kcal/mol]    -934.95215678 [kJ/mol]
      Ind20,r                    -541.30689484 [mEh]    -339.67520473 [kcal/mol]   -1421.20105660 [kJ/mol]
      Ind22                       -72.36325390 [mEh]     -45.40862737 [kcal/mol]    -189.98969694 [kJ/mol]
      Exch-Ind20,r                263.61349053 [mEh]     165.41996273 [kcal/mol]     692.11712404 [kJ/mol]
      Exch-Ind22                   35.24050798 [mEh]      22.11375262 [kcal/mol]      92.52394095 [kJ/mol]
      delta HF,r (2)              -41.28831962 [mEh]     -25.90881172 [kcal/mol]    -108.40246824 [kJ/mol]

    Dispersion                    -76.76331048 [mEh]     -48.16970456 [kcal/mol]    -201.54204390 [kJ/mol]
      Disp20                      -95.73535275 [mEh]     -60.07484082 [kcal/mol]    -251.35313401 [kJ/mol]
      Disp21                       20.13435215 [mEh]      12.63449672 [kcal/mol]      52.86273429 [kJ/mol]
      Disp22 (SDQ)                 -7.56657209 [mEh]      -4.74809567 [kcal/mol]     -19.86603230 [kJ/mol]
      Disp22 (T)                  -12.90747690 [mEh]      -8.09956403 [kcal/mol]     -33.88857592 [kJ/mol]
      Est. Disp22 (T)             -13.48618216 [mEh]      -8.46270707 [kcal/mol]     -35.40796638 [kJ/mol]
      Exch-Disp20                  19.89044437 [mEh]      12.48144228 [kcal/mol]      52.22235449 [kJ/mol]

  Total HF                        247.80808791 [mEh]     155.50192284 [kcal/mol]     650.62004518 [kJ/mol]
  Total SAPT0                     171.96317953 [mEh]     107.90852430 [kcal/mol]     451.48926566 [kJ/mol]
  Total SAPT2                     155.06049833 [mEh]      97.30193171 [kcal/mol]     407.11128228 [kJ/mol]
  Total SAPT2+                    154.14209623 [mEh]      96.72562569 [kcal/mol]     404.70001789 [kJ/mol]

  Special recipe for scaled SAPT0 (see Manual):
    Electrostatics sSAPT0        -212.60511113 [mEh]    -133.41172141 [kcal/mol]    -558.19464236 [kJ/mol]
    Exchange sSAPT0               779.39492297 [mEh]     489.07769798 [kcal/mol]    2046.30108833 [kJ/mol]
    Induction sSAPT0             -159.93927905 [mEh]    -100.36341284 [kcal/mol]    -419.92051930 [kJ/mol]
    Dispersion sSAPT0             -63.84466933 [mEh]     -40.06313486 [kcal/mol]    -167.62415624 [kJ/mol]
  Total sSAPT0                    343.00586345 [mEh]     215.23942888 [kcal/mol]     900.56177043 [kJ/mol]
  --------------------------------------------------------------------------------------------------------

*** Psi4 exiting successfully. Buy a developer a beer!
