                               Psi4 1.3.2 release

  ==> Input File <==

--------------------------------------------------------------------------
#psi4
#
memory 32 gb

molecule  {
0 1
  C        1.9047060    -0.1798760     0.0000010
  H        2.9930900    -0.2590830    -0.0000010
  O        1.1798480    -1.1602640     0.0000000
  O        1.5170880     1.0770050     0.0000000
  H        0.5236580     1.1098660     0.0000010
--
0 1
  C       -1.7698816     0.1756942    -0.0000010
  H       -2.8582716     0.2548362     0.0000000
  O       -1.0450826     1.1561262     0.0000000
  O       -1.3821816    -1.0811608     0.0000000
  H       -0.3887356    -1.1139608     0.0000010
units angstrom
no_reorient  #important for SAPT in psi4, default
symmetry c1  #important for SAPT in psi4, default
}

set {
basis aug-cc-pVDZ
scf_type DF
freeze_core True
}
energy('sapt2+')
--------------------------------------------------------------------------

  //              Dimer HF             //
    Molecular point group: c1
  Charge       = 0
  Multiplicity = 1
  Basis Set: AUG-CC-PVDZ
    Blend: AUG-CC-PVDZ
  Basis Set: (AUG-CC-PVDZ AUX)
    Blend: AUG-CC-PVDZ-JKFIT
  @DF-RHF Final Energy:  -377.61036996626490
    Total Energy =                       -377.6103699662648978
  //            Monomer A HF           //
    Molecular point group: c1
  Multiplicity = 1
  Basis Set: AUG-CC-PVDZ
    Blend: AUG-CC-PVDZ
  Basis Set: (AUG-CC-PVDZ AUX)
    Blend: AUG-CC-PVDZ-JKFIT
  @DF-RHF Final Energy:  -188.79491488437765
    Total Energy =                       -188.7949148843776470
  //            Monomer B HF           //
    Molecular point group: c1

    Geometry (in Angstrom), charge = 0, multiplicity = 1:

       Center              X                  Y                   Z               Mass
    ------------   -----------------  -----------------  -----------------  -----------------
      Gh(C)           1.837288794043    -0.177797509567     0.000000989047    12.000000000000
      Gh(H)           2.925672794043    -0.257004509567    -0.000001010953     1.007825032230
      Gh(O)           1.112430794043    -1.158185509567    -0.000000010953    15.994914619570
      Gh(O)           1.449670794043     1.079083490433    -0.000000010953    15.994914619570
      Gh(H)           0.456240794043     1.111944490433     0.000000989047     1.007825032230
         C           -1.837298805957     0.177772690433    -0.000001010953    12.000000000000
         H           -2.925688805957     0.256914690433    -0.000000010953     1.007825032230
         O           -1.112499805957     1.158204690433    -0.000000010953    15.994914619570
         O           -1.449598805957    -1.079082309567    -0.000000010953    15.994914619570
         H           -0.456152805957    -1.111882309567     0.000000989047     1.007825032230

  Charge       = 0
  Multiplicity = 1
  Basis Set: AUG-CC-PVDZ
    Blend: AUG-CC-PVDZ
  Basis Set: (AUG-CC-PVDZ AUX)
    Blend: AUG-CC-PVDZ-JKFIT

    Orbital Energies [Eh]
    ---------------------

    Doubly Occupied:

       1A    -20.646746     2A    -20.572505     3A    -11.406761
       4A     -1.486945     5A     -1.373962     6A     -0.903996
       7A     -0.732424     8A     -0.713870     9A     -0.643936
      10A     -0.597976    11A     -0.490377    12A     -0.470146

  @DF-RHF Final Energy:  -188.79491375689182

   => Energetics <=

    Nuclear Repulsion Energy =             70.1580372184758971
    One-Electron Energy =                -397.8266130485898202
    Two-Electron Energy =                 138.8736620732221070
    Total Energy =                       -188.7949137568918161

  Dipole Moment: [D]
     X:    -0.4887      Y:    -1.9917      Z:    -0.0000     Total:     2.0508

    SAPT Results
  --------------------------------------------------------------------------------------------------------
    Electrostatics                -63.32629714 [mEh]     -39.73785140 [kcal/mol]    -166.26317024 [kJ/mol]
      Elst10,r                    -64.68578614 [mEh]     -40.59094362 [kcal/mol]    -169.83250811 [kJ/mol]
      Elst12,r                      1.35948900 [mEh]       0.85309222 [kcal/mol]       3.56933787 [kJ/mol]

    Exchange                       94.21831587 [mEh]      59.12288581 [kcal/mol]     247.37015424 [kJ/mol]
      Exch10                       81.34010156 [mEh]      51.04168432 [kcal/mol]     213.55840721 [kJ/mol]
      Exch10(S^2)                  79.38739133 [mEh]      49.81634016 [kcal/mol]     208.43156723 [kJ/mol]
      Exch11(S^2)                  -0.40342639 [mEh]      -0.25315388 [kcal/mol]      -1.05919585 [kJ/mol]
      Exch12(S^2)                  13.28164071 [mEh]       8.33435537 [kcal/mol]      34.87094287 [kJ/mol]

    Induction                     -40.76191855 [mEh]     -25.57849006 [kcal/mol]    -107.02040241 [kJ/mol]
      Ind20,r                     -45.22812823 [mEh]     -28.38107894 [kcal/mol]    -118.74643430 [kJ/mol]
      Ind22                        -7.74958699 [mEh]      -4.86293925 [kcal/mol]     -20.34653784 [kJ/mol]
      Exch-Ind20,r                 24.41462098 [mEh]      15.32040596 [kcal/mol]      64.10057855 [kJ/mol]
      Exch-Ind22                    4.18330885 [mEh]       2.62506594 [kcal/mol]      10.98327587 [kJ/mol]
      delta HF,r (2)              -16.38213316 [mEh]     -10.27994376 [kcal/mol]     -43.01128470 [kJ/mol]

    Dispersion                    -18.01210026 [mEh]     -11.30276356 [kcal/mol]     -47.29076272 [kJ/mol]
      Disp20                      -19.58669029 [mEh]     -12.29083372 [kcal/mol]     -51.42484828 [kJ/mol]
      Disp21                        2.13188040 [mEh]       1.33777515 [kcal/mol]       5.59725121 [kJ/mol]
      Disp22 (SDQ)                 -1.40187632 [mEh]      -0.87969067 [kcal/mol]      -3.68062577 [kJ/mol]
      Disp22 (T)                   -3.15272140 [mEh]      -1.97836255 [kcal/mol]      -8.27746890 [kJ/mol]
      Est. Disp22 (T)              -3.43020319 [mEh]      -2.15248500 [kcal/mol]      -9.00599724 [kJ/mol]
      Exch-Disp20                   4.27478915 [mEh]       2.68247069 [kcal/mol]      11.22345736 [kJ/mol]

  Total HF                        -20.54132500 [mEh]     -12.88987604 [kcal/mol]     -53.93124135 [kJ/mol]
  Total SAPT0                     -35.85322614 [mEh]     -22.49823907 [kcal/mol]     -94.13263227 [kJ/mol]
  Total SAPT2                     -25.18180097 [mEh]     -15.80181868 [kcal/mol]     -66.11480934 [kJ/mol]
  Total SAPT2+                    -27.88200008 [mEh]     -17.49621920 [kcal/mol]     -73.20418113 [kJ/mol]

  Special recipe for scaled SAPT0 (see Manual):
    Electrostatics sSAPT0         -64.68578614 [mEh]     -40.59094362 [kcal/mol]    -169.83250811 [kJ/mol]
    Exchange sSAPT0                81.34010156 [mEh]      51.04168432 [kcal/mol]     213.55840721 [kJ/mol]
    Induction sSAPT0              -35.34936637 [mEh]     -22.18206229 [kcal/mol]     -92.80974861 [kJ/mol]
    Dispersion sSAPT0             -14.98863452 [mEh]      -9.40551016 [kcal/mol]     -39.35265450 [kJ/mol]
  Total sSAPT0                    -33.68368547 [mEh]     -21.13683174 [kcal/mol]     -88.43650401 [kJ/mol]
  --------------------------------------------------------------------------------------------------------

*** Psi4 exiting successfully. Buy a developer a beer!
