                               Psi4 1.3.2 release

  ==> Input File <==

--------------------------------------------------------------------------
#psi4
#
memory 32 gb

molecule  {
0 1
  C       -1.9644470     0.1609890    -0.0000020
  H       -3.0589320     0.1627090    -0.0000040
  O       -1.3160380     1.1929960    -0.0000020
  O       -1.4968300    -1.0660630     0.0000020
  H       -0.4778920    -1.0649310     0.0000090
--
0 1
  C        2.2818153    -0.1935693    -0.0000030
  H        3.3636313    -0.3157943    -0.0000050
  N        1.4640243    -1.1909363    -0.0000009
  H        1.9746193    -2.0644413    -0.0000009
  N        1.8669653     1.0832547     0.0000020
  H        0.8709483     1.2817877     0.0000010
  H        2.5338852     1.8279307     0.0000041
units angstrom
no_reorient  #important for SAPT in psi4, default
symmetry c1  #important for SAPT in psi4, default
}

set {
basis aug-cc-pVDZ
scf_type DF
freeze_core True
}
energy('sapt2+')
--------------------------------------------------------------------------

  //              Dimer HF             //
    Molecular point group: c1
  Charge       = 0
  Multiplicity = 1
  Basis Set: AUG-CC-PVDZ
    Blend: AUG-CC-PVDZ
  Basis Set: (AUG-CC-PVDZ AUX)
    Blend: AUG-CC-PVDZ-JKFIT
  @DF-RHF Final Energy:  -337.92585756373973
    Total Energy =                       -337.9258575637397257
  //            Monomer A HF           //
    Molecular point group: c1
  Multiplicity = 1
  Basis Set: AUG-CC-PVDZ
    Blend: AUG-CC-PVDZ
  Basis Set: (AUG-CC-PVDZ AUX)
    Blend: AUG-CC-PVDZ-JKFIT
  @DF-RHF Final Energy:  -188.79191395973569
    Total Energy =                       -188.7919139597356946
  //            Monomer B HF           //
    Molecular point group: c1

    Geometry (in Angstrom), charge = 0, multiplicity = 1:

       Center              X                  Y                   Z               Mass
    ------------   -----------------  -----------------  -----------------  -----------------
      Gh(C)          -2.083367269898     0.161462611946    -0.000001551728    12.000000000000
      Gh(H)          -3.177852269898     0.163182611946    -0.000003551728     1.007825032230
      Gh(O)          -1.434958269898     1.193469611946    -0.000001551728    15.994914619570
      Gh(O)          -1.615750269898    -1.065589388054     0.000002448272    15.994914619570
      Gh(H)          -0.596812269898    -1.064457388054     0.000009448272     1.007825032230
         C            2.162895030102    -0.193095688054    -0.000002551728    12.000000000000
         H            3.244711030102    -0.315320688054    -0.000004551728     1.007825032230
         N            1.345104030102    -1.190462688054    -0.000000451728    14.003074004430
         H            1.855699030102    -2.063967688054    -0.000000451728     1.007825032230
         N            1.748045030102     1.083728311946     0.000002448272    14.003074004430
         H            0.752028030102     1.282261311946     0.000001448272     1.007825032230
         H            2.414964930102     1.828404311946     0.000004548272     1.007825032230

  Charge       = 0
  Multiplicity = 1
  Basis Set: AUG-CC-PVDZ
    Blend: AUG-CC-PVDZ
  Basis Set: (AUG-CC-PVDZ AUX)
    Blend: AUG-CC-PVDZ-JKFIT

    Orbital Energies [Eh]
    ---------------------

    Doubly Occupied:

       1A    -15.588181     2A    -15.527647     3A    -11.322377
       4A     -1.263864     5A     -1.138710     6A     -0.831999
       7A     -0.750068     8A     -0.640868     9A     -0.618607
      10A     -0.530076    11A     -0.417160    12A     -0.357688

  @DF-RHF Final Energy:  -149.10897060142560

   => Energetics <=

    Nuclear Repulsion Energy =             72.3341930808160498
    One-Electron Energy =                -344.9118360545614905
    Two-Electron Energy =                 123.4686723723198725
    Total Energy =                       -149.1089706014255967

  Dipole Moment: [D]
     X:     2.3291      Y:     2.2576      Z:    -0.0000     Total:     3.2437

    SAPT Results
  --------------------------------------------------------------------------------------------------------
    Electrostatics                -34.11422260 [mEh]     -21.40699787 [kcal/mol]     -89.56687909 [kJ/mol]
      Elst10,r                    -35.28366775 [mEh]     -22.14083578 [kcal/mol]     -92.63725692 [kJ/mol]
      Elst12,r                      1.16944516 [mEh]       0.73383791 [kcal/mol]       3.07037783 [kJ/mol]

    Exchange                       27.74769333 [mEh]      17.41194044 [kcal/mol]      72.85155879 [kJ/mol]
      Exch10                       23.31736119 [mEh]      14.63186505 [kcal/mol]      61.21972336 [kJ/mol]
      Exch10(S^2)                  23.05162981 [mEh]      14.46511609 [kcal/mol]      60.52204572 [kJ/mol]
      Exch11(S^2)                   0.06631638 [mEh]       0.04161416 [kcal/mol]       0.17411364 [kJ/mol]
      Exch12(S^2)                   4.36401576 [mEh]       2.73846123 [kcal/mol]      11.45772180 [kJ/mol]

    Induction                     -14.04055315 [mEh]      -8.81058012 [kcal/mol]     -36.86346721 [kJ/mol]
      Ind20,r                     -14.52127902 [mEh]      -9.11224016 [kcal/mol]     -38.12561282 [kJ/mol]
      Ind22                        -1.90411577 [mEh]      -1.19485068 [kcal/mol]      -4.99925526 [kJ/mol]
      Exch-Ind20,r                  6.63681726 [mEh]       4.16466571 [kcal/mol]      17.42496132 [kJ/mol]
      Exch-Ind22                    0.87025863 [mEh]       0.54609554 [kcal/mol]       2.28486372 [kJ/mol]
      delta HF,r (2)               -5.12223425 [mEh]      -3.21425052 [kcal/mol]     -13.44842417 [kJ/mol]

    Dispersion                     -8.90341216 [mEh]      -5.58697548 [kcal/mol]     -23.37590539 [kJ/mol]
      Disp20                       -9.10236480 [mEh]      -5.71182014 [kcal/mol]     -23.89825549 [kJ/mol]
      Disp21                        0.73665090 [mEh]       0.46225542 [kcal/mol]       1.93407667 [kJ/mol]
      Disp22 (SDQ)                 -0.44640542 [mEh]      -0.28012363 [kcal/mol]      -1.17203726 [kJ/mol]
      Disp22 (T)                   -1.49447729 [mEh]      -0.93779866 [kcal/mol]      -3.92374958 [kJ/mol]
      Est. Disp22 (T)              -1.66653323 [mEh]      -1.04576539 [kcal/mol]      -4.37548238 [kJ/mol]
      Exch-Disp20                   1.57524039 [mEh]       0.98847827 [kcal/mol]       4.13579307 [kJ/mol]

  Total HF                        -24.97300258 [mEh]     -15.67079571 [kcal/mol]     -65.56660924 [kJ/mol]
  Total SAPT0                     -32.50012699 [mEh]     -20.39413759 [kcal/mol]     -85.32907166 [kJ/mol]
  Total SAPT2                     -27.93420683 [mEh]     -17.52897943 [kcal/mol]     -73.34124993 [kJ/mol]
  Total SAPT2+                    -29.31049458 [mEh]     -18.39261303 [kcal/mol]     -76.95469291 [kJ/mol]

  Special recipe for scaled SAPT0 (see Manual):
    Electrostatics sSAPT0         -35.28366775 [mEh]     -22.14083578 [kcal/mol]     -92.63725692 [kJ/mol]
    Exchange sSAPT0                23.31736119 [mEh]      14.63186505 [kcal/mol]      61.21972336 [kJ/mol]
    Induction sSAPT0              -12.77451906 [mEh]      -8.01613173 [kcal/mol]     -33.53949518 [kJ/mol]
    Dispersion sSAPT0              -7.47201750 [mEh]      -4.68876177 [kcal/mol]     -19.61777924 [kJ/mol]
  Total sSAPT0                    -32.21284313 [mEh]     -20.21386424 [kcal/mol]     -84.57480799 [kJ/mol]
  --------------------------------------------------------------------------------------------------------

*** Psi4 exiting successfully. Buy a developer a beer!
