                               Psi4 1.3.2 release

  ==> Input File <==

--------------------------------------------------------------------------
#psi4
#
memory 32 gb

molecule  {
0 1
  C       -1.9521150     0.2323370    -0.0000010
  H       -3.0450720     0.2485030     0.0000010
  O       -1.2823360     1.2482650     0.0000000
  O       -1.5045270    -1.0066940    -0.0000010
  H       -0.5061810    -1.0124010    -0.0000010
--
0 1
  C        1.3977967    -0.2081440     0.0000028
  H        2.4804927    -0.3801700    -0.0000012
  O        0.6084077    -1.1512770    -0.0000002
  N        1.0529637     1.0850080     0.0000008
  H        0.0675587     1.3363280    -0.0000002
  H        1.7631777     1.7918880    -0.0000012
units angstrom
no_reorient  #important for SAPT in psi4, default
symmetry c1  #important for SAPT in psi4, default
}

set {
basis aug-cc-pVDZ
scf_type DF
freeze_core True
}
energy('sapt2+')
--------------------------------------------------------------------------

  //              Dimer HF             //
    Molecular point group: c1
  Charge       = 0
  Multiplicity = 1
  Basis Set: AUG-CC-PVDZ
    Blend: AUG-CC-PVDZ
  Basis Set: (AUG-CC-PVDZ AUX)
    Blend: AUG-CC-PVDZ-JKFIT
  @DF-RHF Final Energy:  -357.71816333775809
    Total Energy =                       -357.7181633377580852
  //            Monomer A HF           //
    Molecular point group: c1
  Multiplicity = 1
  Basis Set: AUG-CC-PVDZ
    Blend: AUG-CC-PVDZ
  Basis Set: (AUG-CC-PVDZ AUX)
    Blend: AUG-CC-PVDZ-JKFIT
  @DF-RHF Final Energy:  -188.79529485210537
    Total Energy =                       -188.7952948521053713
  //            Monomer B HF           //
    Molecular point group: c1

    Geometry (in Angstrom), charge = 0, multiplicity = 1:

       Center              X                  Y                   Z               Mass
    ------------   -----------------  -----------------  -----------------  -----------------
      Gh(C)          -1.666645954131     0.200118324462    -0.000001120714    12.000000000000
      Gh(H)          -2.759602954131     0.216284324462     0.000000879286     1.007825032230
      Gh(O)          -0.996866954131     1.216046324462    -0.000000120714    15.994914619570
      Gh(O)          -1.219057954131    -1.038912675538    -0.000001120714    15.994914619570
      Gh(H)          -0.220711954131    -1.044619675538    -0.000001120714     1.007825032230
         C            1.683265745869    -0.240362675538     0.000002679286    12.000000000000
         H            2.765961745869    -0.412388675538    -0.000001320714     1.007825032230
         O            0.893876745869    -1.183495675538    -0.000000320714    15.994914619570
         N            1.338432745869     1.052789324462     0.000000679286    14.003074004430
         H            0.353027745869     1.304109324462    -0.000000320714     1.007825032230
         H            2.048646745869     1.759669324462    -0.000001320714     1.007825032230

  Charge       = 0
  Multiplicity = 1
  Basis Set: AUG-CC-PVDZ
    Blend: AUG-CC-PVDZ
  Basis Set: (AUG-CC-PVDZ AUX)
    Blend: AUG-CC-PVDZ-JKFIT

    Orbital Energies [Eh]
    ---------------------

    Doubly Occupied:

       1A    -20.536867     2A    -15.609571     3A    -11.365431
       4A     -1.380379     5A     -1.231041     6A     -0.856647
       7A     -0.759892     8A     -0.678222     9A     -0.603351
      10A     -0.571692    11A     -0.433924    12A     -0.420481

  @DF-RHF Final Energy:  -168.96285437752897

   => Energetics <=

    Nuclear Repulsion Energy =             71.2263167891488820
    One-Electron Energy =                -371.4833463654617844
    Two-Electron Energy =                 131.2941751987839325
    Total Energy =                       -168.9628543775289700

  Dipole Moment: [D]
     X:     1.8629      Y:     4.0762      Z:    -0.0000     Total:     4.4817

    SAPT Results
  --------------------------------------------------------------------------------------------------------
    Electrostatics               -137.14452289 [mEh]     -86.05948739 [kcal/mol]    -360.07289524 [kJ/mol]
      Elst10,r                   -136.72423932 [mEh]     -85.79575547 [kcal/mol]    -358.96944087 [kJ/mol]
      Elst12,r                     -0.42028357 [mEh]      -0.26373192 [kcal/mol]      -1.10345437 [kJ/mol]

    Exchange                      313.21436404 [mEh]     196.54498076 [kcal/mol]     822.34419949 [kJ/mol]
      Exch10                      291.19401880 [mEh]     182.72700551 [kcal/mol]     764.52979104 [kJ/mol]
      Exch10(S^2)                 270.54364799 [mEh]     169.76870218 [kcal/mol]     710.31224994 [kJ/mol]
      Exch11(S^2)                  -2.24259590 [mEh]      -1.40725017 [kcal/mol]      -5.88793472 [kJ/mol]
      Exch12(S^2)                  24.26294113 [mEh]      15.22522542 [kcal/mol]      63.70234317 [kJ/mol]

    Induction                    -125.10067088 [mEh]     -78.50185616 [kcal/mol]    -328.45176615 [kJ/mol]
      Ind20,r                    -163.13109398 [mEh]    -102.36630694 [kcal/mol]    -428.30062823 [kJ/mol]
      Ind22                       -24.38720812 [mEh]     -15.30320413 [kcal/mol]     -64.02860609 [kJ/mol]
      Exch-Ind20,r                 92.11322832 [mEh]      57.80192343 [kcal/mol]     241.84324765 [kJ/mol]
      Exch-Ind22                   13.77042485 [mEh]       8.64107205 [kcal/mol]      36.15424545 [kJ/mol]
      delta HF,r (2)              -43.46602196 [mEh]     -27.27534057 [kcal/mol]    -114.12002493 [kJ/mol]

    Dispersion                    -38.35600733 [mEh]     -24.06875797 [kcal/mol]    -100.70368336 [kJ/mol]
      Disp20                      -46.88916663 [mEh]     -29.42339628 [kcal/mol]    -123.10749002 [kJ/mol]
      Disp21                        7.36828290 [mEh]       4.62366733 [kcal/mol]      19.34542410 [kJ/mol]
      Disp22 (SDQ)                 -3.01993809 [mEh]      -1.89503976 [kcal/mol]      -7.92884635 [kJ/mol]
      Disp22 (T)                   -6.70137546 [mEh]      -4.20517659 [kcal/mol]     -17.59445884 [kJ/mol]
      Est. Disp22 (T)              -7.15500603 [mEh]      -4.48983407 [kcal/mol]     -18.78546575 [kJ/mol]
      Exch-Disp20                  11.33982051 [mEh]       7.11584480 [kcal/mol]      29.77269466 [kJ/mol]

  Total HF                         39.98589188 [mEh]      25.09152597 [kcal/mol]     104.98294466 [kJ/mol]
  Total SAPT0                       4.43654576 [mEh]       2.78397450 [kcal/mol]      11.64814929 [kJ/mol]
  Total SAPT2                      15.41982415 [mEh]       9.67608574 [kcal/mol]      40.48474274 [kJ/mol]
  Total SAPT2+                     12.61316294 [mEh]       7.91487924 [kcal/mol]      33.11585474 [kJ/mol]

  Special recipe for scaled SAPT0 (see Manual):
    Electrostatics sSAPT0        -136.72423932 [mEh]     -85.79575547 [kcal/mol]    -358.96944087 [kJ/mol]
    Exchange sSAPT0               291.19401880 [mEh]     182.72700551 [kcal/mol]     764.52979104 [kJ/mol]
    Induction sSAPT0              -91.74015287 [mEh]     -57.56781505 [kcal/mol]    -240.86373817 [kJ/mol]
    Dispersion sSAPT0             -32.74942395 [mEh]     -20.55057379 [kcal/mol]     -85.98360073 [kJ/mol]
  Total sSAPT0                     29.98020267 [mEh]      18.81286120 [kcal/mol]      78.71301127 [kJ/mol]
  --------------------------------------------------------------------------------------------------------

*** Psi4 exiting successfully. Buy a developer a beer!
