                               Psi4 1.3.2 release

  ==> Input File <==

--------------------------------------------------------------------------
#psi4
#
memory 32 gb

molecule  {
0 1
  C       -1.9521150     0.2323370    -0.0000010
  H       -3.0450720     0.2485030     0.0000010
  O       -1.2823360     1.2482650     0.0000000
  O       -1.5045270    -1.0066940    -0.0000010
  H       -0.5061810    -1.0124010    -0.0000010
--
0 1
  C        2.0928333    -0.2562440     0.0000031
  H        3.1755293    -0.4282700    -0.0000009
  O        1.3034443    -1.1993770     0.0000001
  N        1.7480003     1.0369080     0.0000010
  H        0.7625953     1.2882280     0.0000001
  H        2.4582143     1.7437880    -0.0000009
units angstrom
no_reorient  #important for SAPT in psi4, default
symmetry c1  #important for SAPT in psi4, default
}

set {
basis aug-cc-pVDZ
scf_type DF
freeze_core True
}
energy('sapt2+')
--------------------------------------------------------------------------

  //              Dimer HF             //
    Molecular point group: c1
  Charge       = 0
  Multiplicity = 1
  Basis Set: AUG-CC-PVDZ
    Blend: AUG-CC-PVDZ
  Basis Set: (AUG-CC-PVDZ AUX)
    Blend: AUG-CC-PVDZ-JKFIT
  @DF-RHF Final Energy:  -357.77974021415082
    Total Energy =                       -357.7797402141508201
  //            Monomer A HF           //
    Molecular point group: c1
  Multiplicity = 1
  Basis Set: AUG-CC-PVDZ
    Blend: AUG-CC-PVDZ
  Basis Set: (AUG-CC-PVDZ AUX)
    Blend: AUG-CC-PVDZ-JKFIT
  @DF-RHF Final Energy:  -188.79446169367370
    Total Energy =                       -188.7944616936736963
  //            Monomer B HF           //
    Molecular point group: c1

    Geometry (in Angstrom), charge = 0, multiplicity = 1:

       Center              X                  Y                   Z               Mass
    ------------   -----------------  -----------------  -----------------  -----------------
      Gh(C)          -2.010407526604     0.223908340176    -0.000001253709    12.000000000000
      Gh(H)          -3.103364526604     0.240074340176     0.000000746291     1.007825032230
      Gh(O)          -1.340628526604     1.239836340176    -0.000000253709    15.994914619570
      Gh(O)          -1.562819526604    -1.015122659824    -0.000001253709    15.994914619570
      Gh(H)          -0.564473526604    -1.020829659824    -0.000001253709     1.007825032230
         C            2.034540773396    -0.264672659824     0.000002846291    12.000000000000
         H            3.117236773396    -0.436698659824    -0.000001153709     1.007825032230
         O            1.245151773396    -1.207805659824    -0.000000153709    15.994914619570
         N            1.689707773396     1.028479340176     0.000000746291    14.003074004430
         H            0.704302773396     1.279799340176    -0.000000153709     1.007825032230
         H            2.399921773396     1.735359340176    -0.000001153709     1.007825032230

  Charge       = 0
  Multiplicity = 1
  Basis Set: AUG-CC-PVDZ
    Blend: AUG-CC-PVDZ
  Basis Set: (AUG-CC-PVDZ AUX)
    Blend: AUG-CC-PVDZ-JKFIT

    Orbital Energies [Eh]
    ---------------------

    Doubly Occupied:

       1A    -20.536663     2A    -15.609845     3A    -11.365584
       4A     -1.380496     5A     -1.231127     6A     -0.856697
       7A     -0.759950     8A     -0.678248     9A     -0.603393
      10A     -0.571797    11A     -0.434017    12A     -0.420596

  @DF-RHF Final Energy:  -168.96237035322915

   => Energetics <=

    Nuclear Repulsion Energy =             71.2263167891483846
    One-Electron Energy =                -371.4805459356595065
    Two-Electron Energy =                 131.2918587932819889
    Total Energy =                       -168.9623703532291472

  Dipole Moment: [D]
     X:     1.8670      Y:     4.0784      Z:    -0.0000     Total:     4.4854

    SAPT Results
  --------------------------------------------------------------------------------------------------------
    Electrostatics                -34.20232757 [mEh]     -21.46228457 [kcal/mol]     -89.79819865 [kJ/mol]
      Elst10,r                    -36.00923359 [mEh]     -22.59613522 [kcal/mol]     -94.54222975 [kJ/mol]
      Elst12,r                      1.80690602 [mEh]       1.13385065 [kcal/mol]       4.74403110 [kJ/mol]

    Exchange                       32.25167215 [mEh]      20.23822982 [kcal/mol]      84.67675356 [kJ/mol]
      Exch10                       26.57623317 [mEh]      16.67683809 [kcal/mol]      69.77589059 [kJ/mol]
      Exch10(S^2)                  26.31121247 [mEh]      16.51053509 [kcal/mol]      69.08007882 [kJ/mol]
      Exch11(S^2)                  -0.12652665 [mEh]      -0.07939667 [kcal/mol]      -0.33219567 [kJ/mol]
      Exch12(S^2)                   5.80196562 [mEh]       3.64078839 [kcal/mol]      15.23305864 [kJ/mol]

    Induction                     -14.84557291 [mEh]      -9.31573765 [kcal/mol]     -38.97704631 [kJ/mol]
      Ind20,r                     -15.20091037 [mEh]      -9.53871527 [kcal/mol]     -39.90998468 [kJ/mol]
      Ind22                        -2.55468796 [mEh]      -1.60309090 [kcal/mol]      -6.70733231 [kJ/mol]
      Exch-Ind20,r                  7.04671687 [mEh]       4.42188159 [kcal/mol]      18.50115259 [kJ/mol]
      Exch-Ind22                    1.18428188 [mEh]       0.74314810 [kcal/mol]       3.10933165 [kJ/mol]
      delta HF,r (2)               -5.32097333 [mEh]      -3.33896118 [kcal/mol]     -13.97021356 [kJ/mol]

    Dispersion                     -9.67204480 [mEh]      -6.06929974 [kcal/mol]     -25.39395011 [kJ/mol]
      Disp20                       -9.74899906 [mEh]      -6.11758927 [kcal/mol]     -25.59599350 [kJ/mol]
      Disp21                        0.82212868 [mEh]       0.51589354 [kcal/mol]       2.15849856 [kJ/mol]
      Disp22 (SDQ)                 -0.62958574 [mEh]      -0.39507102 [kcal/mol]      -1.65297714 [kJ/mol]
      Disp22 (T)                   -1.62583164 [mEh]      -1.02022476 [kcal/mol]      -4.26862039 [kJ/mol]
      Est. Disp22 (T)              -1.80111936 [mEh]      -1.13021946 [kcal/mol]      -4.72883824 [kJ/mol]
      Exch-Disp20                   1.68553068 [mEh]       1.05768647 [kcal/mol]       4.42536020 [kJ/mol]

  Total HF                        -22.90816725 [mEh]     -14.37509197 [kcal/mol]     -60.14538482 [kJ/mol]
  Total SAPT0                     -30.97163562 [mEh]     -19.43499477 [kcal/mol]     -81.31601812 [kJ/mol]
  Total SAPT2                     -24.85969671 [mEh]     -15.59969520 [kcal/mol]     -65.26912471 [kJ/mol]
  Total SAPT2+                    -26.46827313 [mEh]     -16.60909214 [kcal/mol]     -69.49244152 [kJ/mol]

  Special recipe for scaled SAPT0 (see Manual):
    Electrostatics sSAPT0         -36.00923359 [mEh]     -22.59613522 [kcal/mol]     -94.54222975 [kJ/mol]
    Exchange sSAPT0                26.57623317 [mEh]      16.67683809 [kcal/mol]      69.77589059 [kJ/mol]
    Induction sSAPT0              -13.26007986 [mEh]      -8.32082573 [kcal/mol]     -34.81433487 [kJ/mol]
    Dispersion sSAPT0              -8.01202091 [mEh]      -5.02761903 [kcal/mol]     -21.03555800 [kJ/mol]
  Total sSAPT0                    -30.70510118 [mEh]     -19.26774188 [kcal/mol]     -80.61623204 [kJ/mol]
  --------------------------------------------------------------------------------------------------------

*** Psi4 exiting successfully. Buy a developer a beer!
