                               Psi4 1.3.2 release

  ==> Input File <==

--------------------------------------------------------------------------
#psi4
#
memory 32 gb

molecule  {
0 1
  C        2.1022740    -0.1999910     0.0000010
  H        3.1931760    -0.2048250     0.0000000
  N        1.3929100    -1.2773340     0.0000000
  H        2.0119970    -2.0793170    -0.0000010
  N        1.5658380     1.0343930     0.0000000
  H        0.5512430     1.1716950     0.0000000
  H        2.1722770     1.8295020    -0.0000010
--
0 1
  C       -2.1022740     0.1999910     0.0000000
  H       -3.1931760     0.2048250     0.0000000
  N       -1.3929100     1.2773340     0.0000000
  H       -2.0119970     2.0793170     0.0000000
  N       -1.5658380    -1.0343930     0.0000000
  H       -0.5512430    -1.1716950     0.0000000
  H       -2.1722770    -1.8295020     0.0000000
units angstrom
no_reorient  #important for SAPT in psi4, default
symmetry c1  #important for SAPT in psi4, default
}

set {
basis aug-cc-pVDZ
scf_type DF
freeze_core True
}
energy('sapt2+')
--------------------------------------------------------------------------

  //              Dimer HF             //
    Molecular point group: c1
  Charge       = 0
  Multiplicity = 1
  Basis Set: AUG-CC-PVDZ
    Blend: AUG-CC-PVDZ
  Basis Set: (AUG-CC-PVDZ AUX)
    Blend: AUG-CC-PVDZ-JKFIT
  @DF-RHF Final Energy:  -298.23380796144181
    Total Energy =                       -298.2338079614418120
  //            Monomer A HF           //
    Molecular point group: c1
  Multiplicity = 1
  Basis Set: AUG-CC-PVDZ
    Blend: AUG-CC-PVDZ
  Basis Set: (AUG-CC-PVDZ AUX)
    Blend: AUG-CC-PVDZ-JKFIT
  @DF-RHF Final Energy:  -149.10859581355913
    Total Energy =                       -149.1085958135591341
  //            Monomer B HF           //
    Molecular point group: c1

    Geometry (in Angstrom), charge = 0, multiplicity = 1:

       Center              X                  Y                   Z               Mass
    ------------   -----------------  -----------------  -----------------  -----------------
      Gh(C)           2.102274000000    -0.199991000000     0.000000886638    12.000000000000
      Gh(H)           3.193176000000    -0.204825000000    -0.000000113362     1.007825032230
      Gh(N)           1.392910000000    -1.277334000000    -0.000000113362    14.003074004430
      Gh(H)           2.011997000000    -2.079317000000    -0.000001113362     1.007825032230
      Gh(N)           1.565838000000     1.034393000000    -0.000000113362    14.003074004430
      Gh(H)           0.551243000000     1.171695000000    -0.000000113362     1.007825032230
      Gh(H)           2.172277000000     1.829502000000    -0.000001113362     1.007825032230
         C           -2.102274000000     0.199991000000    -0.000000113362    12.000000000000
         H           -3.193176000000     0.204825000000    -0.000000113362     1.007825032230
         N           -1.392910000000     1.277334000000    -0.000000113362    14.003074004430
         H           -2.011997000000     2.079317000000    -0.000000113362     1.007825032230
         N           -1.565838000000    -1.034393000000    -0.000000113362    14.003074004430
         H           -0.551243000000    -1.171695000000    -0.000000113362     1.007825032230
         H           -2.172277000000    -1.829502000000    -0.000000113362     1.007825032230

  Charge       = 0
  Multiplicity = 1
  Basis Set: AUG-CC-PVDZ
    Blend: AUG-CC-PVDZ
  Basis Set: (AUG-CC-PVDZ AUX)
    Blend: AUG-CC-PVDZ-JKFIT

    Orbital Energies [Eh]
    ---------------------

    Doubly Occupied:

       1A    -15.589093     2A    -15.528815     3A    -11.323093
       4A     -1.261893     5A     -1.139661     6A     -0.831344
       7A     -0.746759     8A     -0.639960     9A     -0.616321
      10A     -0.529246    11A     -0.419317    12A     -0.358269

  @DF-RHF Final Energy:  -149.10859581344272

   => Energetics <=

    Nuclear Repulsion Energy =             72.1807086195704386
    One-Electron Energy =                -344.6110694331141531
    Two-Electron Energy =                 123.3217650001009815
    Total Energy =                       -149.1085958134427187

  Dipole Moment: [D]
     X:    -2.0972      Y:    -2.5208      Z:     0.0000     Total:     3.2791

    SAPT Results
  --------------------------------------------------------------------------------------------------------
    Electrostatics                -42.08267732 [mEh]     -26.40727870 [kcal/mol]    -110.48805407 [kJ/mol]
      Elst10,r                    -41.63350281 [mEh]     -26.12541744 [kcal/mol]    -109.30874656 [kJ/mol]
      Elst12,r                     -0.44917451 [mEh]      -0.28186126 [kcal/mol]      -1.17930751 [kJ/mol]

    Exchange                       47.64465968 [mEh]      29.89747532 [kcal/mol]     125.09103675 [kJ/mol]
      Exch10                       41.94031058 [mEh]      26.31794222 [kcal/mol]     110.11427027 [kJ/mol]
      Exch10(S^2)                  41.29428065 [mEh]      25.91255232 [kcal/mol]     108.41811890 [kJ/mol]
      Exch11(S^2)                   0.10583515 [mEh]       0.06641256 [kcal/mol]       0.27787015 [kJ/mol]
      Exch12(S^2)                   5.59851394 [mEh]       3.51312054 [kcal/mol]      14.69889633 [kJ/mol]

    Induction                     -18.19212922 [mEh]     -11.41573343 [kcal/mol]     -47.76342867 [kJ/mol]
      Ind20,r                     -20.36454770 [mEh]     -12.77894661 [kcal/mol]     -53.46711261 [kJ/mol]
      Ind22                        -2.66980352 [mEh]      -1.67532700 [kcal/mol]      -7.00956819 [kJ/mol]
      Exch-Ind20,r                 10.68505405 [mEh]       6.70497264 [kcal/mol]      28.05360553 [kJ/mol]
      Exch-Ind22                    1.40081653 [mEh]       0.87902564 [kcal/mol]       3.67784328 [kJ/mol]
      delta HF,r (2)               -7.24364857 [mEh]      -4.54545810 [kcal/mol]     -19.01819669 [kJ/mol]

    Dispersion                    -12.58132367 [mEh]      -7.89489980 [kcal/mol]     -33.03226076 [kJ/mol]
      Disp20                      -13.96182621 [mEh]      -8.76117822 [kcal/mol]     -36.65676967 [kJ/mol]
      Disp21                        1.17125057 [mEh]       0.73497083 [kcal/mol]       3.07511796 [kJ/mol]
      Disp22 (SDQ)                 -0.27898755 [mEh]      -0.17506733 [kcal/mol]      -0.73248171 [kJ/mol]
      Disp22 (T)                   -2.05360655 [mEh]      -1.28865757 [kcal/mol]      -5.39174326 [kJ/mol]
      Est. Disp22 (T)              -2.29150298 [mEh]      -1.43793983 [kcal/mol]      -6.01634026 [kJ/mol]
      Exch-Disp20                   2.77974250 [mEh]       1.74431475 [kcal/mol]       7.29821292 [kJ/mol]

  Total HF                        -16.61633444 [mEh]     -10.42690728 [kcal/mol]     -43.62618006 [kJ/mol]
  Total SAPT0                     -27.79841816 [mEh]     -17.44377075 [kcal/mol]     -72.98473681 [kJ/mol]
  Total SAPT2                     -23.81223057 [mEh]     -14.94240027 [kcal/mol]     -62.51900275 [kJ/mol]
  Total SAPT2+                    -25.21147053 [mEh]     -15.82043660 [kcal/mol]     -66.19270675 [kJ/mol]

  Special recipe for scaled SAPT0 (see Manual):
    Electrostatics sSAPT0         -41.63350281 [mEh]     -26.12541744 [kcal/mol]    -109.30874656 [kJ/mol]
    Exchange sSAPT0                41.94031058 [mEh]      26.31794222 [kcal/mol]     110.11427027 [kJ/mol]
    Induction sSAPT0              -16.41376756 [mEh]     -10.29979464 [kcal/mol]     -43.09434078 [kJ/mol]
    Dispersion sSAPT0             -11.04956867 [mEh]      -6.93370902 [kcal/mol]     -29.01063855 [kJ/mol]
  Total sSAPT0                    -27.15652845 [mEh]     -17.04097888 [kcal/mol]     -71.29945563 [kJ/mol]
  --------------------------------------------------------------------------------------------------------

*** Psi4 exiting successfully. Buy a developer a beer!
