                               Psi4 1.3.2 release

  ==> Input File <==

--------------------------------------------------------------------------
#psi4
#
memory 32 gb

molecule  {
0 1
  C        1.9047060    -0.1798760     0.0000010
  H        2.9930900    -0.2590830    -0.0000010
  O        1.1798480    -1.1602640     0.0000000
  O        1.5170880     1.0770050     0.0000000
  H        0.5236580     1.1098660     0.0000010
--
0 1
  C       -2.0395764     0.1840218    -0.0000010
  H       -3.1279664     0.2631638     0.0000000
  O       -1.3147774     1.1644538     0.0000000
  O       -1.6518764    -1.0728332     0.0000000
  H       -0.6584304    -1.1056332     0.0000010
units angstrom
no_reorient  #important for SAPT in psi4, default
symmetry c1  #important for SAPT in psi4, default
}

set {
basis aug-cc-pVDZ
scf_type DF
freeze_core True
}
energy('sapt2+')
--------------------------------------------------------------------------

  //              Dimer HF             //
    Molecular point group: c1
  Charge       = 0
  Multiplicity = 1
  Basis Set: AUG-CC-PVDZ
    Blend: AUG-CC-PVDZ
  Basis Set: (AUG-CC-PVDZ AUX)
    Blend: AUG-CC-PVDZ-JKFIT
  @DF-RHF Final Energy:  -377.61316221905014
    Total Energy =                       -377.6131622190501389
  //            Monomer A HF           //
    Molecular point group: c1
  Multiplicity = 1
  Basis Set: AUG-CC-PVDZ
    Blend: AUG-CC-PVDZ
  Basis Set: (AUG-CC-PVDZ AUX)
    Blend: AUG-CC-PVDZ-JKFIT
  @DF-RHF Final Energy:  -188.79476429574467
    Total Energy =                       -188.7947642957446703
  //            Monomer B HF           //
    Molecular point group: c1

    Geometry (in Angstrom), charge = 0, multiplicity = 1:

       Center              X                  Y                   Z               Mass
    ------------   -----------------  -----------------  -----------------  -----------------
      Gh(C)           1.972136194043    -0.181961309567     0.000000989047    12.000000000000
      Gh(H)           3.060520194043    -0.261168309567    -0.000001010953     1.007825032230
      Gh(O)           1.247278194043    -1.162349309567    -0.000000010953    15.994914619570
      Gh(O)           1.584518194043     1.074919690433    -0.000000010953    15.994914619570
      Gh(H)           0.591088194043     1.107780690433     0.000000989047     1.007825032230
         C           -1.972146205957     0.181936490433    -0.000001010953    12.000000000000
         H           -3.060536205957     0.261078490433    -0.000000010953     1.007825032230
         O           -1.247347205957     1.162368490433    -0.000000010953    15.994914619570
         O           -1.584446205957    -1.074918509567    -0.000000010953    15.994914619570
         H           -0.591000205957    -1.107718509567     0.000000989047     1.007825032230

  Charge       = 0
  Multiplicity = 1
  Basis Set: AUG-CC-PVDZ
    Blend: AUG-CC-PVDZ
  Basis Set: (AUG-CC-PVDZ AUX)
    Blend: AUG-CC-PVDZ-JKFIT

    Orbital Energies [Eh]
    ---------------------

    Doubly Occupied:

       1A    -20.646807     2A    -20.572421     3A    -11.406862
       4A     -1.486997     5A     -1.373997     6A     -0.904017
       7A     -0.732452     8A     -0.713900     9A     -0.643984
      10A     -0.597998    11A     -0.490428    12A     -0.470205

  @DF-RHF Final Energy:  -188.79476313539018

   => Energetics <=

    Nuclear Repulsion Energy =             70.1580372184758971
    One-Electron Energy =                -397.8254648638178992
    Two-Electron Energy =                 138.8726645099518180
    Total Energy =                       -188.7947631353901841

  Dipole Moment: [D]
     X:    -0.4900      Y:    -1.9914      Z:    -0.0000     Total:     2.0508

    SAPT Results
  --------------------------------------------------------------------------------------------------------
    Electrostatics                -37.16934985 [mEh]     -23.32411917 [kcal/mol]     -97.58811459 [kJ/mol]
      Elst10,r                    -39.10036293 [mEh]     -24.53584817 [kcal/mol]    -102.65798873 [kJ/mol]
      Elst12,r                      1.93101308 [mEh]       1.21172900 [kcal/mol]       5.06987413 [kJ/mol]

    Exchange                       38.61068622 [mEh]      24.22857139 [kcal/mol]     101.37234270 [kJ/mol]
      Exch10                       31.78538431 [mEh]      19.94562978 [kcal/mol]      83.45251502 [kJ/mol]
      Exch10(S^2)                  31.42633576 [mEh]      19.72032342 [kcal/mol]      82.50983318 [kJ/mol]
      Exch11(S^2)                  -0.13437273 [mEh]      -0.08432016 [kcal/mol]      -0.35279555 [kJ/mol]
      Exch12(S^2)                   6.95967463 [mEh]       4.36726177 [kcal/mol]      18.27262324 [kJ/mol]

    Induction                     -18.01183270 [mEh]     -11.30259566 [kcal/mol]     -47.29006025 [kJ/mol]
      Ind20,r                     -18.63001552 [mEh]     -11.69051124 [kcal/mol]     -48.91309902 [kJ/mol]
      Ind22                        -3.22006774 [mEh]      -2.02062301 [kcal/mol]      -8.45428667 [kJ/mol]
      Exch-Ind20,r                  8.84064932 [mEh]       5.54759121 [kcal/mol]      23.21112160 [kJ/mol]
      Exch-Ind22                    1.52804433 [mEh]       0.95886230 [kcal/mol]       4.01187984 [kJ/mol]
      delta HF,r (2)               -6.53044310 [mEh]      -4.09791491 [kcal/mol]     -17.14567600 [kJ/mol]

    Dispersion                    -10.69007311 [mEh]      -6.70812215 [kcal/mol]     -28.06678309 [kJ/mol]
      Disp20                      -10.75245906 [mEh]      -6.74726992 [kcal/mol]     -28.23057736 [kJ/mol]
      Disp21                        0.95148891 [mEh]       0.59706831 [kcal/mol]       2.49813380 [kJ/mol]
      Disp22 (SDQ)                 -0.79846988 [mEh]      -0.50104741 [kcal/mol]      -2.09638237 [kJ/mol]
      Disp22 (T)                   -1.82685902 [mEh]      -1.14637134 [kcal/mol]      -4.79641769 [kJ/mol]
      Est. Disp22 (T)              -2.01476436 [mEh]      -1.26428373 [kcal/mol]      -5.28976311 [kJ/mol]
      Exch-Disp20                   1.92413127 [mEh]       1.20741060 [kcal/mol]       5.05180595 [kJ/mol]

  Total HF                        -23.63478792 [mEh]     -14.83105333 [kcal/mol]     -62.05312712 [kJ/mol]
  Total SAPT0                     -32.46311570 [mEh]     -20.37091265 [kcal/mol]     -85.23189854 [kJ/mol]
  Total SAPT2                     -25.39882412 [mEh]     -15.93800276 [kcal/mol]     -66.68460355 [kJ/mol]
  Total SAPT2+                    -27.26056945 [mEh]     -17.10626559 [kcal/mol]     -71.57261523 [kJ/mol]

  Special recipe for scaled SAPT0 (see Manual):
    Electrostatics sSAPT0         -39.10036293 [mEh]     -24.53584817 [kcal/mol]    -102.65798873 [kJ/mol]
    Exchange sSAPT0                31.78538431 [mEh]      19.94562978 [kcal/mol]      83.45251502 [kJ/mol]
    Induction sSAPT0              -16.01331863 [mEh]     -10.04850915 [kcal/mol]     -42.04296228 [kJ/mol]
    Dispersion sSAPT0              -8.76162134 [mEh]      -5.49800040 [kcal/mol]     -23.00363367 [kJ/mol]
  Total sSAPT0                    -32.08991859 [mEh]     -20.13672793 [kcal/mol]     -84.25206966 [kJ/mol]
  --------------------------------------------------------------------------------------------------------

*** Psi4 exiting successfully. Buy a developer a beer!
