                               Psi4 1.3.2 release

  ==> Input File <==

--------------------------------------------------------------------------
#psi4
#
memory 32 gb

molecule  {
0 1
  C        2.1022740    -0.1999910     0.0000010
  H        3.1931760    -0.2048250     0.0000000
  N        1.3929100    -1.2773340     0.0000000
  H        2.0119970    -2.0793170    -0.0000010
  N        1.5658380     1.0343930     0.0000000
  H        0.5512430     1.1716950     0.0000000
  H        2.1722770     1.8295020    -0.0000010
--
0 1
  C       -1.9543366     0.1878439     0.0000000
  H       -3.0452386     0.1926779     0.0000000
  N       -1.2449726     1.2651869     0.0000000
  H       -1.8640596     2.0671700     0.0000000
  N       -1.4179006    -1.0465400     0.0000000
  H       -0.4033056    -1.1838420     0.0000000
  H       -2.0243396    -1.8416491     0.0000000
units angstrom
no_reorient  #important for SAPT in psi4, default
symmetry c1  #important for SAPT in psi4, default
}

set {
basis aug-cc-pVDZ
scf_type DF
freeze_core True
}
energy('sapt2+')
--------------------------------------------------------------------------

  //              Dimer HF             //
    Molecular point group: c1
  Charge       = 0
  Multiplicity = 1
  Basis Set: AUG-CC-PVDZ
    Blend: AUG-CC-PVDZ
  Basis Set: (AUG-CC-PVDZ AUX)
    Blend: AUG-CC-PVDZ-JKFIT
  @DF-RHF Final Energy:  -298.23039000362934
    Total Energy =                       -298.2303900036293385
  //            Monomer A HF           //
    Molecular point group: c1
  Multiplicity = 1
  Basis Set: AUG-CC-PVDZ
    Blend: AUG-CC-PVDZ
  Basis Set: (AUG-CC-PVDZ AUX)
    Blend: AUG-CC-PVDZ-JKFIT
  @DF-RHF Final Energy:  -149.10868284486716
    Total Energy =                       -149.1086828448671895
  //            Monomer B HF           //
    Molecular point group: c1

    Geometry (in Angstrom), charge = 0, multiplicity = 1:

       Center              X                  Y                   Z               Mass
    ------------   -----------------  -----------------  -----------------  -----------------
      Gh(C)           2.028305300000    -0.193917468188     0.000000886638    12.000000000000
      Gh(H)           3.119207300000    -0.198751468188    -0.000000113362     1.007825032230
      Gh(N)           1.318941300000    -1.271260468188    -0.000000113362    14.003074004430
      Gh(H)           1.938028300000    -2.073243468188    -0.000001113362     1.007825032230
      Gh(N)           1.491869300000     1.040466531812    -0.000000113362    14.003074004430
      Gh(H)           0.477274300000     1.177768531812    -0.000000113362     1.007825032230
      Gh(H)           2.098308300000     1.835575531812    -0.000001113362     1.007825032230
         C           -2.028305300000     0.193917431812    -0.000000113362    12.000000000000
         H           -3.119207300000     0.198751431812    -0.000000113362     1.007825032230
         N           -1.318941300000     1.271260431812    -0.000000113362    14.003074004430
         H           -1.938028300000     2.073243531812    -0.000000113362     1.007825032230
         N           -1.491869300000    -1.040466468188    -0.000000113362    14.003074004430
         H           -0.477274300000    -1.177768468188    -0.000000113362     1.007825032230
         H           -2.098308300000    -1.835575568188    -0.000000113362     1.007825032230

  Charge       = 0
  Multiplicity = 1
  Basis Set: AUG-CC-PVDZ
    Blend: AUG-CC-PVDZ
  Basis Set: (AUG-CC-PVDZ AUX)
    Blend: AUG-CC-PVDZ-JKFIT

    Orbital Energies [Eh]
    ---------------------

    Doubly Occupied:

       1A    -15.589059     2A    -15.528786     3A    -11.323044
       4A     -1.261884     5A     -1.139654     6A     -0.831341
       7A     -0.746757     8A     -0.639965     9A     -0.616332
      10A     -0.529235    11A     -0.419299    12A     -0.358257

  @DF-RHF Final Energy:  -149.10868284140122

   => Energetics <=

    Nuclear Repulsion Energy =             72.1807096948148796
    One-Electron Energy =                -344.6115574912098509
    Two-Electron Energy =                 123.3221649549937666
    Total Energy =                       -149.1086828414012189

  Dipole Moment: [D]
     X:    -2.0965      Y:    -2.5209      Z:     0.0000     Total:     3.2788

    SAPT Results
  --------------------------------------------------------------------------------------------------------
    Electrostatics                -55.63609073 [mEh]     -34.91217401 [kcal/mol]    -146.07253608 [kJ/mol]
      Elst10,r                    -54.79657518 [mEh]     -34.38537005 [kcal/mol]    -143.86838830 [kJ/mol]
      Elst12,r                     -0.83951555 [mEh]      -0.52680396 [kcal/mol]      -2.20414777 [kJ/mol]

    Exchange                       74.86981817 [mEh]      46.98152020 [kcal/mol]     196.57068053 [kJ/mol]
      Exch10                       67.26931288 [mEh]      42.21213112 [kcal/mol]     176.61555662 [kJ/mol]
      Exch10(S^2)                  65.71582928 [mEh]      41.23730545 [kcal/mol]     172.53688600 [kJ/mol]
      Exch11(S^2)                   0.25648944 [mEh]       0.16094956 [kcal/mol]       0.67341294 [kJ/mol]
      Exch12(S^2)                   7.34401585 [mEh]       4.60843952 [kcal/mol]      19.28171096 [kJ/mol]

    Induction                     -27.30000611 [mEh]     -17.13101247 [kcal/mol]     -71.67615617 [kJ/mol]
      Ind20,r                     -31.60474654 [mEh]     -19.83227787 [kcal/mol]     -82.97825062 [kJ/mol]
      Ind22                        -4.03851430 [mEh]      -2.53420599 [kcal/mol]     -10.60311784 [kJ/mol]
      Exch-Ind20,r                 17.49514913 [mEh]      10.97837182 [kcal/mol]      45.93350771 [kJ/mol]
      Exch-Ind22                    2.23556325 [mEh]       1.40283712 [kcal/mol]       5.86947051 [kJ/mol]
      delta HF,r (2)              -11.38745765 [mEh]      -7.14573755 [kcal/mol]     -29.89776593 [kJ/mol]

    Dispersion                    -16.40205565 [mEh]     -10.29244531 [kcal/mol]     -43.06359118 [kJ/mol]
      Disp20                      -18.93303922 [mEh]     -11.88066148 [kcal/mol]     -49.70868762 [kJ/mol]
      Disp21                        1.78462712 [mEh]       1.11987043 [kcal/mol]       4.68553786 [kJ/mol]
      Disp22 (SDQ)                 -0.35861010 [mEh]      -0.22503124 [kcal/mol]      -0.94153069 [kJ/mol]
      Disp22 (T)                   -2.73026961 [mEh]      -1.71327004 [kcal/mol]      -7.16832186 [kJ/mol]
      Est. Disp22 (T)              -2.98999123 [mEh]      -1.87624783 [kcal/mol]      -7.85022091 [kJ/mol]
      Exch-Disp20                   4.09495778 [mEh]       2.56962480 [kcal/mol]      10.75131018 [kJ/mol]

  Total HF                        -13.02431736 [mEh]      -8.17288253 [kcal/mol]     -34.19534052 [kJ/mol]
  Total SAPT0                     -27.86239880 [mEh]     -17.48391921 [kcal/mol]     -73.15271796 [kJ/mol]
  Total SAPT2                     -22.90436010 [mEh]     -14.37270295 [kcal/mol]     -60.13538916 [kJ/mol]
  Total SAPT2+                    -24.46833432 [mEh]     -15.35411159 [kcal/mol]     -64.24160290 [kJ/mol]

  Special recipe for scaled SAPT0 (see Manual):
    Electrostatics sSAPT0         -54.79657518 [mEh]     -34.38537005 [kcal/mol]    -143.86838830 [kJ/mol]
    Exchange sSAPT0                67.26931288 [mEh]      42.21213112 [kcal/mol]     176.61555662 [kJ/mol]
    Induction sSAPT0              -24.22676879 [mEh]     -15.20252694 [kcal/mol]     -63.60737270 [kJ/mol]
    Dispersion sSAPT0             -14.54075510 [mEh]      -9.12446158 [kcal/mol]     -38.17674725 [kJ/mol]
  Total sSAPT0                    -26.29478619 [mEh]     -16.50022744 [kcal/mol]     -69.03695162 [kJ/mol]
  --------------------------------------------------------------------------------------------------------

*** Psi4 exiting successfully. Buy a developer a beer!
