                               Psi4 1.3.2 release

  ==> Input File <==

--------------------------------------------------------------------------
#psi4
#
memory 32 gb

molecule  {
0 1
  C       -1.9644470     0.1609890    -0.0000020
  H       -3.0589320     0.1627090    -0.0000040
  O       -1.3160380     1.1929960    -0.0000020
  O       -1.4968300    -1.0660630     0.0000020
  H       -0.4778920    -1.0649310     0.0000090
--
0 1
  C        2.1421821    -0.1882372    -0.0000030
  H        3.2239981    -0.3104621    -0.0000050
  N        1.3243911    -1.1856042    -0.0000010
  H        1.8349861    -2.0591092    -0.0000010
  N        1.7273321     1.0885868     0.0000020
  H        0.7313151     1.2871198     0.0000010
  H        2.3942521     1.8332628     0.0000040
units angstrom
no_reorient  #important for SAPT in psi4, default
symmetry c1  #important for SAPT in psi4, default
}

set {
basis aug-cc-pVDZ
scf_type DF
freeze_core True
}
energy('sapt2+')
--------------------------------------------------------------------------

  //              Dimer HF             //
    Molecular point group: c1
  Charge       = 0
  Multiplicity = 1
  Basis Set: AUG-CC-PVDZ
    Blend: AUG-CC-PVDZ
  Basis Set: (AUG-CC-PVDZ AUX)
    Blend: AUG-CC-PVDZ-JKFIT
  @DF-RHF Final Energy:  -337.92740844491357
    Total Energy =                       -337.9274084449135671
  //            Monomer A HF           //
    Molecular point group: c1
  Multiplicity = 1
  Basis Set: AUG-CC-PVDZ
    Blend: AUG-CC-PVDZ
  Basis Set: (AUG-CC-PVDZ AUX)
    Blend: AUG-CC-PVDZ-JKFIT
  @DF-RHF Final Energy:  -188.79199919094810
    Total Energy =                       -188.7919991909481041
  //            Monomer B HF           //
    Molecular point group: c1

    Geometry (in Angstrom), charge = 0, multiplicity = 1:

       Center              X                  Y                   Z               Mass
    ------------   -----------------  -----------------  -----------------  -----------------
      Gh(C)          -2.015076623678     0.158854831583    -0.000001533938    12.000000000000
      Gh(H)          -3.109561623678     0.160574831583    -0.000003533938     1.007825032230
      Gh(O)          -1.366667623678     1.190861831583    -0.000001533938    15.994914619570
      Gh(O)          -1.547459623678    -1.068197168417     0.000002466062    15.994914619570
      Gh(H)          -0.528521623678    -1.067065168417     0.000009466062     1.007825032230
         C            2.091552476322    -0.190371368417    -0.000002533938    12.000000000000
         H            3.173368476322    -0.312596268417    -0.000004533938     1.007825032230
         N            1.273761476322    -1.187738368417    -0.000000533938    14.003074004430
         H            1.784356476322    -2.061243368417    -0.000000533938     1.007825032230
         N            1.676702476322     1.086452631583     0.000002466062    14.003074004430
         H            0.680685476322     1.284985631583     0.000001466062     1.007825032230
         H            2.343622476322     1.831128631583     0.000004466062     1.007825032230

  Charge       = 0
  Multiplicity = 1
  Basis Set: AUG-CC-PVDZ
    Blend: AUG-CC-PVDZ
  Basis Set: (AUG-CC-PVDZ AUX)
    Blend: AUG-CC-PVDZ-JKFIT

    Orbital Energies [Eh]
    ---------------------

    Doubly Occupied:

       1A    -15.588178     2A    -15.527628     3A    -11.322328
       4A     -1.263858     5A     -1.138709     6A     -0.831996
       7A     -0.750068     8A     -0.640871     9A     -0.618620
      10A     -0.530072    11A     -0.417147    12A     -0.357682

  @DF-RHF Final Energy:  -149.10903477925314

   => Energetics <=

    Nuclear Repulsion Energy =             72.3341928579092155
    One-Electron Energy =                -344.9121423948009806
    Two-Electron Energy =                 123.4689147576386290
    Total Energy =                       -149.1090347792531361

  Dipole Moment: [D]
     X:     2.3285      Y:     2.2576      Z:    -0.0000     Total:     3.2433

    SAPT Results
  --------------------------------------------------------------------------------------------------------
    Electrostatics                -43.14984318 [mEh]     -27.07693539 [kcal/mol]    -113.28989767 [kJ/mol]
      Elst10,r                    -44.18081314 [mEh]     -27.72387880 [kcal/mol]    -115.99670891 [kJ/mol]
      Elst12,r                      1.03096996 [mEh]       0.64694341 [kcal/mol]       2.70681125 [kJ/mol]

    Exchange                       42.86453977 [mEh]      26.89790480 [kcal/mol]     112.54083367 [kJ/mol]
      Exch10                       36.76942489 [mEh]      23.07316247 [kcal/mol]      96.53811176 [kJ/mol]
      Exch10(S^2)                  36.16378707 [mEh]      22.69311899 [kcal/mol]      94.94800986 [kJ/mol]
      Exch11(S^2)                   0.11942151 [mEh]       0.07493813 [kcal/mol]       0.31354114 [kJ/mol]
      Exch12(S^2)                   5.97569337 [mEh]       3.74980420 [kcal/mol]      15.68918077 [kJ/mol]

    Induction                     -20.42102132 [mEh]     -12.81438435 [kcal/mol]     -53.61538410 [kJ/mol]
      Ind20,r                     -21.66114057 [mEh]     -13.59257092 [kcal/mol]     -56.87131674 [kJ/mol]
      Ind22                        -2.85729973 [mEh]      -1.79298265 [kcal/mol]      -7.50183940 [kJ/mol]
      Exch-Ind20,r                 10.60856124 [mEh]       6.65697268 [kcal/mol]      27.85277369 [kJ/mol]
      Exch-Ind22                    1.39936487 [mEh]       0.87811471 [kcal/mol]       3.67403195 [kJ/mol]
      delta HF,r (2)               -7.91050713 [mEh]      -4.96391817 [kcal/mol]     -20.76903361 [kJ/mol]

    Dispersion                    -11.43481062 [mEh]      -7.17545199 [kcal/mol]     -30.02209114 [kJ/mol]
      Disp20                      -12.11385570 [mEh]      -7.60155922 [kcal/mol]     -31.80492377 [kJ/mol]
      Disp21                        1.07463863 [mEh]       0.67434592 [kcal/mol]       2.82146334 [kJ/mol]
      Disp22 (SDQ)                 -0.57751081 [mEh]      -0.36239350 [kcal/mol]      -1.51625441 [kJ/mol]
      Disp22 (T)                   -1.94433096 [mEh]      -1.22008610 [kcal/mol]      -5.10484022 [kJ/mol]
      Est. Disp22 (T)              -2.14825886 [mEh]      -1.34805279 [kcal/mol]      -5.64025286 [kJ/mol]
      Exch-Disp20                   2.33017612 [mEh]       1.46220759 [kcal/mol]       6.11787656 [kJ/mol]

  Total HF                        -26.37447471 [mEh]     -16.55023275 [kcal/mol]     -69.24617382 [kJ/mol]
  Total SAPT0                     -36.15815430 [mEh]     -22.68958438 [kcal/mol]     -94.93322103 [kJ/mol]
  Total SAPT2                     -30.49000432 [mEh]     -19.13276657 [kcal/mol]     -80.05149531 [kJ/mol]
  Total SAPT2+                    -32.14113535 [mEh]     -20.16886693 [kcal/mol]     -84.38653924 [kJ/mol]

  Special recipe for scaled SAPT0 (see Manual):
    Electrostatics sSAPT0         -44.18081314 [mEh]     -27.72387880 [kcal/mol]    -115.99670891 [kJ/mol]
    Exchange sSAPT0                36.76942489 [mEh]      23.07316247 [kcal/mol]      96.53811176 [kJ/mol]
    Induction sSAPT0              -18.42112339 [mEh]     -11.55942945 [kcal/mol]     -48.36465281 [kJ/mol]
    Dispersion sSAPT0              -9.66463711 [mEh]      -6.06465135 [kcal/mol]     -25.37450123 [kJ/mol]
  Total sSAPT0                    -35.49714875 [mEh]     -22.27479713 [kcal/mol]     -93.19775120 [kJ/mol]
  --------------------------------------------------------------------------------------------------------

*** Psi4 exiting successfully. Buy a developer a beer!
