                               Psi4 1.3.2 release

  ==> Input File <==

--------------------------------------------------------------------------
#psi4
#
memory 32 gb

molecule  {
0 1
  C       -2.0482690     0.2828850     0.0000130
  H       -3.1457830     0.3491130    -0.0000080
  O       -1.3512910     1.2933720    -0.0000010
  N       -1.5923150    -0.9782630     0.0000040
  H       -0.5837530    -1.1752650     0.0000030
  H       -2.2528990    -1.7321960    -0.0000070
--
0 1
  C        1.1885468    -0.1590285     0.0000042
  H        2.2784588    -0.1852965     0.0000002
  N        0.4566408    -1.2206875     0.0000021
  H        1.0564058    -2.0370065    -0.0000038
  N        0.6763718     1.0859135     0.0000002
  H       -0.3302682     1.2358895    -0.0000008
  H        1.2922589     1.8734665    -0.0000049
units angstrom
no_reorient  #important for SAPT in psi4, default
symmetry c1  #important for SAPT in psi4, default
}

set {
basis aug-cc-pVDZ
scf_type DF
freeze_core True
}
energy('sapt2+')
--------------------------------------------------------------------------

  //              Dimer HF             //
    Molecular point group: c1
  Charge       = 0
  Multiplicity = 1
  Basis Set: AUG-CC-PVDZ
    Blend: AUG-CC-PVDZ
  Basis Set: (AUG-CC-PVDZ AUX)
    Blend: AUG-CC-PVDZ-JKFIT
  @DF-RHF Final Energy:  -317.88449572428476
    Total Energy =                       -317.8844957242847613
  //            Monomer A HF           //
    Molecular point group: c1
  Multiplicity = 1
  Basis Set: AUG-CC-PVDZ
    Blend: AUG-CC-PVDZ
  Basis Set: (AUG-CC-PVDZ AUX)
    Blend: AUG-CC-PVDZ-JKFIT
  @DF-RHF Final Energy:  -168.96291862212283
    Total Energy =                       -168.9629186221228281
  //            Monomer B HF           //
    Molecular point group: c1

    Geometry (in Angstrom), charge = 0, multiplicity = 1:

       Center              X                  Y                   Z               Mass
    ------------   -----------------  -----------------  -----------------  -----------------
      Gh(C)          -1.598444668574     0.227827732949     0.000010112498    12.000000000000
      Gh(H)          -2.695958668574     0.294055732949    -0.000010887502     1.007825032230
      Gh(O)          -0.901466668574     1.238314732949    -0.000003887502    15.994914619570
      Gh(N)          -1.142490668574    -1.033320267051     0.000001112498    14.003074004430
      Gh(H)          -0.133928668574    -1.230322267051     0.000000112498     1.007825032230
      Gh(H)          -1.803074668574    -1.787253267051    -0.000009887502     1.007825032230
         C            1.638371131426    -0.214085767051     0.000001312498    12.000000000000
         H            2.728283131426    -0.240353767051    -0.000002687502     1.007825032230
         N            0.906465131426    -1.275744767051    -0.000000787502    14.003074004430
         H            1.506230131426    -2.092063767051    -0.000006687502     1.007825032230
         N            1.126196131426     1.030856232949    -0.000002687502    14.003074004430
         H            0.119556131426     1.180832232949    -0.000003687502     1.007825032230
         H            1.742083231426     1.818409232949    -0.000007787502     1.007825032230

  Charge       = 0
  Multiplicity = 1
  Basis Set: AUG-CC-PVDZ
    Blend: AUG-CC-PVDZ
  Basis Set: (AUG-CC-PVDZ AUX)
    Blend: AUG-CC-PVDZ-JKFIT

    Orbital Energies [Eh]
    ---------------------

    Doubly Occupied:

       1A    -15.588196     2A    -15.528421     3A    -11.322812
       4A     -1.262262     5A     -1.139919     6A     -0.832212
       7A     -0.747416     8A     -0.640408     9A     -0.617097
      10A     -0.529176    11A     -0.419323    12A     -0.358274

  @DF-RHF Final Energy:  -149.10992920974959

   => Energetics <=

    Nuclear Repulsion Energy =             72.2208398206249598
    One-Electron Energy =                -344.6905056046018672
    Two-Electron Energy =                 123.3597365742272984
    Total Energy =                       -149.1099292097495947

  Dipole Moment: [D]
     X:     2.1466      Y:     2.4652      Z:    -0.0000     Total:     3.2688

    SAPT Results
  --------------------------------------------------------------------------------------------------------
    Electrostatics               -236.09500033 [mEh]    -148.15184942 [kcal/mol]    -619.86733798 [kJ/mol]
      Elst10,r                   -235.10952927 [mEh]    -147.53345699 [kcal/mol]    -617.27998407 [kJ/mol]
      Elst12,r                     -0.98547106 [mEh]      -0.61839243 [kcal/mol]      -2.58735391 [kJ/mol]

    Exchange                      662.78406237 [mEh]     415.90327821 [kcal/mol]    1740.13931602 [kJ/mol]
      Exch10                      649.94531634 [mEh]     407.84684344 [kcal/mol]    1706.43119296 [kJ/mol]
      Exch10(S^2)                 554.74267293 [mEh]     348.10628277 [kcal/mol]    1456.47668712 [kJ/mol]
      Exch11(S^2)                  -2.81946729 [mEh]      -1.76924243 [kcal/mol]      -7.40251035 [kJ/mol]
      Exch12(S^2)                  15.65821332 [mEh]       9.82567720 [kcal/mol]      41.11063340 [kJ/mol]

    Induction                    -246.07968863 [mEh]    -154.41733592 [kcal/mol]    -646.08213350 [kJ/mol]
      Ind20,r                    -368.59154924 [mEh]    -231.29468910 [kcal/mol]    -967.73697920 [kJ/mol]
      Ind22                       -37.26300283 [mEh]     -23.38288730 [kcal/mol]     -97.83400046 [kJ/mol]
      Exch-Ind20,r                174.75522841 [mEh]     109.66056142 [kcal/mol]     458.81978899 [kJ/mol]
      Exch-Ind22                   17.66699368 [mEh]      11.08620591 [kcal/mol]      46.38468552 [kJ/mol]
      delta HF,r (2)              -32.64735866 [mEh]     -20.48652685 [kcal/mol]     -85.71562834 [kJ/mol]

    Dispersion                    -70.52287554 [mEh]     -44.25377252 [kcal/mol]    -185.15778422 [kJ/mol]
      Disp20                      -88.88105467 [mEh]     -55.77370384 [kcal/mol]    -233.35717689 [kJ/mol]
      Disp21                       16.41705807 [mEh]      10.30185947 [kcal/mol]      43.10298002 [kJ/mol]
      Disp22 (SDQ)                 -3.31776314 [mEh]      -2.08192780 [kcal/mol]      -8.71078594 [kJ/mol]
      Disp22 (T)                  -11.02548130 [mEh]      -6.91859397 [kcal/mol]     -28.94739718 [kJ/mol]
      Est. Disp22 (T)             -11.54573352 [mEh]      -7.24505717 [kcal/mol]     -30.31331919 [kJ/mol]
      Exch-Disp20                  16.80461773 [mEh]      10.54505683 [kcal/mol]      44.12051777 [kJ/mol]

  Total HF                        188.35210759 [mEh]     118.19273192 [kcal/mol]     494.51839034 [kJ/mol]
  Total SAPT0                     116.27567065 [mEh]      72.96408490 [kcal/mol]     305.28173123 [kJ/mol]
  Total SAPT2                     108.53293646 [mEh]      68.10544585 [kcal/mol]     284.95318543 [kJ/mol]
  Total SAPT2+                    110.08649787 [mEh]      69.08032035 [kcal/mol]     289.03206033 [kJ/mol]

  Special recipe for scaled SAPT0 (see Manual):
    Electrostatics sSAPT0        -235.10952927 [mEh]    -147.53345699 [kcal/mol]    -617.27998407 [kJ/mol]
    Exchange sSAPT0               649.94531634 [mEh]     407.84684344 [kcal/mol]    1706.43119296 [kJ/mol]
    Induction sSAPT0             -120.18740680 [mEh]     -75.41873640 [kcal/mol]    -315.55199309 [kJ/mol]
    Dispersion sSAPT0             -61.85489310 [mEh]     -38.81453142 [kcal/mol]    -162.39999946 [kJ/mol]
  Total sSAPT0                    232.79348717 [mEh]     146.08011863 [kcal/mol]     611.19921635 [kJ/mol]
  --------------------------------------------------------------------------------------------------------

*** Psi4 exiting successfully. Buy a developer a beer!
