                               Psi4 1.3.2 release

  ==> Input File <==

--------------------------------------------------------------------------
#psi4
#
memory 32 gb

molecule  {
0 1
  C       -1.9521150     0.2323370    -0.0000010
  H       -3.0450720     0.2485030     0.0000010
  O       -1.2823360     1.2482650     0.0000000
  O       -1.5045270    -1.0066940    -0.0000010
  H       -0.5061810    -1.0124010    -0.0000010
--
0 1
  C        2.2318407    -0.2658640     0.0000031
  H        3.3145367    -0.4378900    -0.0000009
  O        1.4424517    -1.2089970     0.0000001
  N        1.8870077     1.0272880     0.0000011
  H        0.9016027     1.2786080     0.0000001
  H        2.5972217     1.7341680    -0.0000009
units angstrom
no_reorient  #important for SAPT in psi4, default
symmetry c1  #important for SAPT in psi4, default
}

set {
basis aug-cc-pVDZ
scf_type DF
freeze_core True
}
energy('sapt2+')
--------------------------------------------------------------------------

  //              Dimer HF             //
    Molecular point group: c1
  Charge       = 0
  Multiplicity = 1
  Basis Set: AUG-CC-PVDZ
    Blend: AUG-CC-PVDZ
  Basis Set: (AUG-CC-PVDZ AUX)
    Blend: AUG-CC-PVDZ-JKFIT
  @DF-RHF Final Energy:  -357.77835940337235
    Total Energy =                       -357.7783594033723489
  //            Monomer A HF           //
    Molecular point group: c1
  Multiplicity = 1
  Basis Set: AUG-CC-PVDZ
    Blend: AUG-CC-PVDZ
  Basis Set: (AUG-CC-PVDZ AUX)
    Blend: AUG-CC-PVDZ-JKFIT
  @DF-RHF Final Energy:  -188.79438451237112
    Total Energy =                       -188.7943845123711242
  //            Monomer B HF           //
    Molecular point group: c1

    Geometry (in Angstrom), charge = 0, multiplicity = 1:

       Center              X                  Y                   Z               Mass
    ------------   -----------------  -----------------  -----------------  -----------------
      Gh(C)          -2.079159880667     0.228666343319    -0.000001269092    12.000000000000
      Gh(H)          -3.172116880667     0.244832343319     0.000000730908     1.007825032230
      Gh(O)          -1.409380880667     1.244594343319    -0.000000269092    15.994914619570
      Gh(O)          -1.631571880667    -1.010364656681    -0.000001269092    15.994914619570
      Gh(H)          -0.633225880667    -1.016071656681    -0.000001269092     1.007825032230
         C            2.104795819333    -0.269534656681     0.000002830908    12.000000000000
         H            3.187491819333    -0.441560656681    -0.000001169092     1.007825032230
         O            1.315406819333    -1.212667656681    -0.000000169092    15.994914619570
         N            1.759962819333     1.023617343319     0.000000830908    14.003074004430
         H            0.774557819333     1.274937343319    -0.000000169092     1.007825032230
         H            2.470176819333     1.730497343319    -0.000001169092     1.007825032230

  Charge       = 0
  Multiplicity = 1
  Basis Set: AUG-CC-PVDZ
    Blend: AUG-CC-PVDZ
  Basis Set: (AUG-CC-PVDZ AUX)
    Blend: AUG-CC-PVDZ-JKFIT

    Orbital Energies [Eh]
    ---------------------

    Doubly Occupied:

       1A    -20.536561     2A    -15.609858     3A    -11.365630
       4A     -1.380513     5A     -1.231140     6A     -0.856705
       7A     -0.759963     8A     -0.678255     9A     -0.603404
      10A     -0.571817    11A     -0.434027    12A     -0.420615

  @DF-RHF Final Energy:  -168.96230568411752

   => Energetics <=

    Nuclear Repulsion Energy =             71.2263167891488820
    One-Electron Energy =                -371.4802710484096337
    Two-Electron Energy =                 131.2916485751432276
    Total Energy =                       -168.9623056841175242

  Dipole Moment: [D]
     X:     1.8680      Y:     4.0788      Z:    -0.0000     Total:     4.4862

    SAPT Results
  --------------------------------------------------------------------------------------------------------
    Electrostatics                -27.04121082 [mEh]     -16.96861597 [kcal/mol]     -70.99668922 [kJ/mol]
      Elst10,r                    -28.90259124 [mEh]     -18.13664982 [kcal/mol]     -75.88374286 [kJ/mol]
      Elst12,r                      1.86138043 [mEh]       1.16803385 [kcal/mol]       4.88705364 [kJ/mol]

    Exchange                       20.31761835 [mEh]      12.74949800 [kcal/mol]      53.34389962 [kJ/mol]
      Exch10                       16.34413871 [mEh]      10.25610188 [kcal/mol]      42.91153026 [kJ/mol]
      Exch10(S^2)                  16.23464821 [mEh]      10.18739556 [kcal/mol]      42.62406300 [kJ/mol]
      Exch11(S^2)                  -0.09031771 [mEh]      -0.05667522 [kcal/mol]      -0.23712911 [kJ/mol]
      Exch12(S^2)                   4.06379735 [mEh]       2.55007133 [kcal/mol]      10.66949847 [kJ/mol]

    Induction                     -10.06610111 [mEh]      -6.31657381 [kcal/mol]     -26.42854482 [kJ/mol]
      Ind20,r                     -10.00083010 [mEh]      -6.27561564 [kcal/mol]     -26.25717582 [kJ/mol]
      Ind22                        -1.64348097 [mEh]      -1.03129988 [kcal/mol]      -4.31495868 [kJ/mol]
      Exch-Ind20,r                  4.18740064 [mEh]       2.62763357 [kcal/mol]      10.99401887 [kJ/mol]
      Exch-Ind22                    0.68813420 [mEh]       0.43181073 [kcal/mol]       1.80669610 [kJ/mol]
      delta HF,r (2)               -3.29732488 [mEh]      -2.06910260 [kcal/mol]      -8.65712529 [kJ/mol]

    Dispersion                     -7.47878762 [mEh]      -4.69301008 [kcal/mol]     -19.63555419 [kJ/mol]
      Disp20                       -7.28336013 [mEh]      -4.57037748 [kcal/mol]     -19.12245939 [kJ/mol]
      Disp21                        0.56943779 [mEh]       0.35732761 [kcal/mol]       1.49505871 [kJ/mol]
      Disp22 (SDQ)                 -0.48211464 [mEh]      -0.30253151 [kcal/mol]      -1.26579182 [kJ/mol]
      Disp22 (T)                   -1.23910244 [mEh]      -0.77754852 [kcal/mol]      -3.25326302 [kJ/mol]
      Est. Disp22 (T)              -1.38326482 [mEh]      -0.86801178 [kcal/mol]      -3.63176130 [kJ/mol]
      Exch-Disp20                   1.10051419 [mEh]       0.69058308 [kcal/mol]       2.88939961 [kJ/mol]

  Total HF                        -21.66920688 [mEh]     -13.59763261 [kcal/mol]     -56.89249484 [kJ/mol]
  Total SAPT0                     -27.85205283 [mEh]     -17.47742701 [kcal/mol]     -73.12555462 [kJ/mol]
  Total SAPT2                     -22.97253952 [mEh]     -14.41548619 [kcal/mol]     -60.31439420 [kJ/mol]
  Total SAPT2+                    -24.26848120 [mEh]     -15.22870187 [kcal/mol]     -63.71688861 [kJ/mol]

  Special recipe for scaled SAPT0 (see Manual):
    Electrostatics sSAPT0         -28.90259124 [mEh]     -18.13664982 [kcal/mol]     -75.88374286 [kJ/mol]
    Exchange sSAPT0                16.34413871 [mEh]      10.25610188 [kcal/mol]      42.91153026 [kJ/mol]
    Induction sSAPT0               -9.02545906 [mEh]      -5.66356107 [kcal/mol]     -23.69633951 [kJ/mol]
    Dispersion sSAPT0              -6.16042901 [mEh]      -3.86572757 [kcal/mol]     -16.17420414 [kJ/mol]
  Total sSAPT0                    -27.74434061 [mEh]     -17.40983658 [kcal/mol]     -72.84275625 [kJ/mol]
  --------------------------------------------------------------------------------------------------------

*** Psi4 exiting successfully. Buy a developer a beer!
