                               Psi4 1.3.2 release

  ==> Input File <==

--------------------------------------------------------------------------
#psi4
#
memory 32 gb

molecule  {
0 1
  C       -1.9521150     0.2323370    -0.0000010
  H       -3.0450720     0.2485030     0.0000010
  O       -1.2823360     1.2482650     0.0000000
  O       -1.5045270    -1.0066940    -0.0000010
  H       -0.5061810    -1.0124010    -0.0000010
--
0 1
  C        1.6758114    -0.2273840     0.0000029
  H        2.7585074    -0.3994100    -0.0000011
  O        0.8864224    -1.1705170    -0.0000001
  N        1.3309784     1.0657680     0.0000009
  H        0.3455734     1.3170880    -0.0000001
  H        2.0411924     1.7726480    -0.0000011
units angstrom
no_reorient  #important for SAPT in psi4, default
symmetry c1  #important for SAPT in psi4, default
}

set {
basis aug-cc-pVDZ
scf_type DF
freeze_core True
}
energy('sapt2+')
--------------------------------------------------------------------------

  //              Dimer HF             //
    Molecular point group: c1
  Charge       = 0
  Multiplicity = 1
  Basis Set: AUG-CC-PVDZ
    Blend: AUG-CC-PVDZ
  Basis Set: (AUG-CC-PVDZ AUX)
    Blend: AUG-CC-PVDZ-JKFIT
  @DF-RHF Final Energy:  -357.76896309781546
    Total Energy =                       -357.7689630978154582
  //            Monomer A HF           //
    Molecular point group: c1
  Multiplicity = 1
  Basis Set: AUG-CC-PVDZ
    Blend: AUG-CC-PVDZ
  Basis Set: (AUG-CC-PVDZ AUX)
    Blend: AUG-CC-PVDZ-JKFIT
  @DF-RHF Final Energy:  -188.79478250052256
    Total Energy =                       -188.7947825005225582
  //            Monomer B HF           //
    Molecular point group: c1

    Geometry (in Angstrom), charge = 0, multiplicity = 1:

       Center              X                  Y                   Z               Mass
    ------------   -----------------  -----------------  -----------------  -----------------
      Gh(C)          -1.804150612796     0.209634330747    -0.000001170173    12.000000000000
      Gh(H)          -2.897107612796     0.225800330747     0.000000829827     1.007825032230
      Gh(O)          -1.134371612796     1.225562330747    -0.000000170173    15.994914619570
      Gh(O)          -1.356562612796    -1.029396669253    -0.000001170173    15.994914619570
      Gh(H)          -0.358216612796    -1.035103669253    -0.000001170173     1.007825032230
         C            1.823775787204    -0.250086669253     0.000002729827    12.000000000000
         H            2.906471787204    -0.422112669253    -0.000001270173     1.007825032230
         O            1.034386787204    -1.193219669253    -0.000000270173    15.994914619570
         N            1.478942787204     1.043065330747     0.000000729827    14.003074004430
         H            0.493537787204     1.294385330747    -0.000000270173     1.007825032230
         H            2.189156787204     1.749945330747    -0.000001270173     1.007825032230

  Charge       = 0
  Multiplicity = 1
  Basis Set: AUG-CC-PVDZ
    Blend: AUG-CC-PVDZ
  Basis Set: (AUG-CC-PVDZ AUX)
    Blend: AUG-CC-PVDZ-JKFIT

    Orbital Energies [Eh]
    ---------------------

    Doubly Occupied:

       1A    -20.536657     2A    -15.609732     3A    -11.365466
       4A     -1.380446     5A     -1.231092     6A     -0.856669
       7A     -0.759920     8A     -0.678239     9A     -0.603383
      10A     -0.571758    11A     -0.433947    12A     -0.420551

  @DF-RHF Final Energy:  -168.96255792547984

   => Energetics <=

    Nuclear Repulsion Energy =             71.2263167891489104
    One-Electron Energy =                -371.4820317079766028
    Two-Electron Energy =                 131.2931569933478784
    Total Energy =                       -168.9625579254798424

  Dipole Moment: [D]
     X:     1.8644      Y:     4.0776      Z:    -0.0000     Total:     4.4836

    SAPT Results
  --------------------------------------------------------------------------------------------------------
    Electrostatics                -76.71916637 [mEh]     -48.14200372 [kcal/mol]    -201.42614356 [kJ/mol]
      Elst10,r                    -77.60854277 [mEh]     -48.70009583 [kcal/mol]    -203.76120096 [kJ/mol]
      Elst12,r                      0.88937639 [mEh]       0.55809211 [kcal/mol]       2.33505740 [kJ/mol]

    Exchange                      127.68447159 [mEh]      80.12321558 [kcal/mol]     335.23553399 [kJ/mol]
      Exch10                      113.15186429 [mEh]      71.00386682 [kcal/mol]     297.08017876 [kJ/mol]
      Exch10(S^2)                 109.44059084 [mEh]      68.67500757 [kcal/mol]     287.33623166 [kJ/mol]
      Exch11(S^2)                  -0.53355354 [mEh]      -0.33480990 [kcal/mol]      -1.40084463 [kJ/mol]
      Exch12(S^2)                  15.06616085 [mEh]       9.45415867 [kcal/mol]      39.55619986 [kJ/mol]

    Induction                     -51.45006595 [mEh]     -32.28540381 [kcal/mol]    -135.08212953 [kJ/mol]
      Ind20,r                     -59.78232574 [mEh]     -37.51397577 [kcal/mol]    -156.95847461 [kJ/mol]
      Ind22                        -9.80532344 [mEh]      -6.15293335 [kcal/mol]     -25.74387314 [kJ/mol]
      Exch-Ind20,r                 33.66265452 [mEh]      21.12363463 [kcal/mol]      88.38128727 [kJ/mol]
      Exch-Ind22                    5.52125083 [mEh]       3.46463720 [kcal/mol]      14.49604205 [kJ/mol]
      delta HF,r (2)              -21.04632212 [mEh]     -13.20676652 [kcal/mol]     -55.25711110 [kJ/mol]

    Dispersion                    -21.57939900 [mEh]     -13.54127731 [kcal/mol]     -56.65670427 [kJ/mol]
      Disp20                      -24.54996159 [mEh]     -15.40533348 [kcal/mol]     -64.45591526 [kJ/mol]
      Disp21                        2.92170566 [mEh]       1.83339798 [kcal/mol]       7.67093714 [kJ/mol]
      Disp22 (SDQ)                 -1.52303294 [mEh]      -0.95571760 [kcal/mol]      -3.99872244 [kJ/mol]
      Disp22 (T)                   -3.74485178 [mEh]      -2.34992997 [kcal/mol]      -9.83210699 [kJ/mol]
      Est. Disp22 (T)              -4.07665845 [mEh]      -2.55814180 [kcal/mol]     -10.70326529 [kJ/mol]
      Exch-Disp20                   5.64854832 [mEh]       3.54451759 [kcal/mol]      14.83026158 [kJ/mol]

  Total HF                        -11.62267181 [mEh]      -7.29333667 [kcal/mol]     -30.51532064 [kJ/mol]
  Total SAPT0                     -30.52408507 [mEh]     -19.15415256 [kcal/mol]     -80.14097432 [kJ/mol]
  Total SAPT2                     -19.38617399 [mEh]     -12.16500784 [kcal/mol]     -50.89839279 [kJ/mol]
  Total SAPT2+                    -22.06415972 [mEh]     -13.84546926 [kcal/mol]     -57.92944337 [kJ/mol]

  Special recipe for scaled SAPT0 (see Manual):
    Electrostatics sSAPT0         -77.60854277 [mEh]     -48.70009583 [kcal/mol]    -203.76120096 [kJ/mol]
    Exchange sSAPT0               113.15186429 [mEh]      71.00386682 [kcal/mol]     297.08017876 [kJ/mol]
    Induction sSAPT0              -43.62391297 [mEh]     -27.37441867 [kcal/mol]    -114.53456771 [kJ/mol]
    Dispersion sSAPT0             -18.30705692 [mEh]     -11.48785166 [kcal/mol]     -48.06517133 [kJ/mol]
  Total sSAPT0                    -26.38764836 [mEh]     -16.55849934 [kcal/mol]     -69.28076124 [kJ/mol]
  --------------------------------------------------------------------------------------------------------

*** Psi4 exiting successfully. Buy a developer a beer!
