                               Psi4 1.3.2 release

  ==> Input File <==

--------------------------------------------------------------------------
#psi4
#
memory 32 gb

molecule  {
0 1
  C        1.9047060    -0.1798760     0.0000010
  H        2.9930900    -0.2590830    -0.0000010
  O        1.1798480    -1.1602640     0.0000000
  O        1.5170880     1.0770050     0.0000000
  H        0.5236580     1.1098660     0.0000010
--
0 1
  C       -1.9047290     0.1798580    -0.0000010
  H       -2.9931190     0.2590000     0.0000000
  O       -1.1799300     1.1602900     0.0000000
  O       -1.5170290    -1.0769970     0.0000000
  H       -0.5235830    -1.1097970     0.0000010
units angstrom
no_reorient  #important for SAPT in psi4, default
symmetry c1  #important for SAPT in psi4, default
}

set {
basis aug-cc-pVDZ
scf_type DF
freeze_core True
}
energy('sapt2+')
--------------------------------------------------------------------------

  //              Dimer HF             //
    Molecular point group: c1
  Charge       = 0
  Multiplicity = 1
  Basis Set: AUG-CC-PVDZ
    Blend: AUG-CC-PVDZ
  Basis Set: (AUG-CC-PVDZ AUX)
    Blend: AUG-CC-PVDZ-JKFIT
  @DF-RHF Final Energy:  -377.61321709908327
    Total Energy =                       -377.6132170990832719
  //            Monomer A HF           //
    Molecular point group: c1
  Multiplicity = 1
  Basis Set: AUG-CC-PVDZ
    Blend: AUG-CC-PVDZ
  Basis Set: (AUG-CC-PVDZ AUX)
    Blend: AUG-CC-PVDZ-JKFIT
  @DF-RHF Final Energy:  -188.79483802418986
    Total Energy =                       -188.7948380241898576
  //            Monomer B HF           //
    Molecular point group: c1

    Geometry (in Angstrom), charge = 0, multiplicity = 1:

       Center              X                  Y                   Z               Mass
    ------------   -----------------  -----------------  -----------------  -----------------
      Gh(C)           1.904712494043    -0.179879409567     0.000000989047    12.000000000000
      Gh(H)           2.993096494043    -0.259086409567    -0.000001010953     1.007825032230
      Gh(O)           1.179854494043    -1.160267409567    -0.000000010953    15.994914619570
      Gh(O)           1.517094494043     1.077001590433    -0.000000010953    15.994914619570
      Gh(H)           0.523664494043     1.109862590433     0.000000989047     1.007825032230
         C           -1.904722505957     0.179854590433    -0.000001010953    12.000000000000
         H           -2.993112505957     0.258996590433    -0.000000010953     1.007825032230
         O           -1.179923505957     1.160286590433    -0.000000010953    15.994914619570
         O           -1.517022505957    -1.077000409567    -0.000000010953    15.994914619570
         H           -0.523576505957    -1.109800409567     0.000000989047     1.007825032230

  Charge       = 0
  Multiplicity = 1
  Basis Set: AUG-CC-PVDZ
    Blend: AUG-CC-PVDZ
  Basis Set: (AUG-CC-PVDZ AUX)
    Blend: AUG-CC-PVDZ-JKFIT

    Orbital Energies [Eh]
    ---------------------

    Doubly Occupied:

       1A    -20.646790     2A    -20.572504     3A    -11.406811
       4A     -1.486970     5A     -1.373980     6A     -0.904005
       7A     -0.732437     8A     -0.713883     9A     -0.643959
      10A     -0.597984    11A     -0.490401    12A     -0.470179

  @DF-RHF Final Energy:  -188.79483688605723

   => Energetics <=

    Nuclear Repulsion Energy =             70.1580372184758971
    One-Electron Energy =                -397.8259394976348631
    Two-Electron Energy =                 138.8730653931017400
    Total Energy =                       -188.7948368860572259

  Dipole Moment: [D]
     X:    -0.4893      Y:    -1.9915      Z:    -0.0000     Total:     2.0508

    SAPT Results
  --------------------------------------------------------------------------------------------------------
    Electrostatics                -48.17909002 [mEh]     -30.23283543 [kcal/mol]    -126.49418342 [kJ/mol]
      Elst10,r                    -49.91138397 [mEh]     -31.31986629 [kcal/mol]    -131.04232056 [kJ/mol]
      Elst12,r                      1.73229395 [mEh]       1.08703087 [kcal/mol]       4.54813714 [kJ/mol]

    Exchange                       60.36110329 [mEh]      37.87716416 [kcal/mol]     158.47805486 [kJ/mol]
      Exch10                       50.88065624 [mEh]      31.92809382 [kcal/mol]     133.58714456 [kJ/mol]
      Exch10(S^2)                  50.04262463 [mEh]      31.40222105 [kcal/mol]     131.38689286 [kJ/mol]
      Exch11(S^2)                  -0.22343126 [mEh]      -0.14020524 [kcal/mol]      -0.58661870 [kJ/mol]
      Exch12(S^2)                   9.70387832 [mEh]       6.08927558 [kcal/mol]      25.47752901 [kJ/mol]

    Induction                     -26.95435122 [mEh]     -16.91411075 [kcal/mol]     -70.76863939 [kJ/mol]
      Ind20,r                     -28.80285928 [mEh]     -18.07406707 [kcal/mol]     -75.62189661 [kJ/mol]
      Ind22                        -4.98749899 [mEh]      -3.12970286 [kcal/mol]     -13.09467679 [kJ/mol]
      Exch-Ind20,r                 14.69514308 [mEh]       9.22134150 [kcal/mol]      38.58209283 [kJ/mol]
      Exch-Ind22                    2.54460887 [mEh]       1.59676617 [kcal/mol]       6.68086967 [kJ/mol]
      delta HF,r (2)              -10.40374491 [mEh]      -6.52844849 [kcal/mol]     -27.31502849 [kJ/mol]

    Dispersion                    -13.84027598 [mEh]      -8.68490430 [kcal/mol]     -36.33763959 [kJ/mol]
      Disp20                      -14.46237244 [mEh]      -9.07527572 [kcal/mol]     -37.97095361 [kJ/mol]
      Disp21                        1.40663172 [mEh]       0.88267473 [kcal/mol]       3.69311106 [kJ/mol]
      Disp22 (SDQ)                 -1.05071569 [mEh]      -0.65933405 [kcal/mol]      -2.75865366 [kJ/mol]
      Disp22 (T)                   -2.38369829 [mEh]      -1.49579326 [kcal/mol]      -6.25839899 [kJ/mol]
      Est. Disp22 (T)              -2.61958340 [mEh]      -1.64381340 [kcal/mol]      -6.87771528 [kJ/mol]
      Exch-Disp20                   2.88576383 [mEh]       1.81084414 [kcal/mol]       7.57657190 [kJ/mol]

  Total HF                        -23.54218884 [mEh]     -14.77294653 [kcal/mol]     -61.81000827 [kJ/mol]
  Total SAPT0                     -35.11879744 [mEh]     -22.03737810 [kcal/mol]     -92.20438998 [kJ/mol]
  Total SAPT2                     -26.34894656 [mEh]     -16.53421359 [kcal/mol]     -69.17914966 [kJ/mol]
  Total SAPT2+                    -28.61261394 [mEh]     -17.95468631 [kcal/mol]     -75.12240754 [kJ/mol]

  Special recipe for scaled SAPT0 (see Manual):
    Electrostatics sSAPT0         -49.91138397 [mEh]     -31.31986629 [kcal/mol]    -131.04232056 [kJ/mol]
    Exchange sSAPT0                50.88065624 [mEh]      31.92809382 [kcal/mol]     133.58714456 [kJ/mol]
    Induction sSAPT0              -23.76075846 [mEh]     -14.91010104 [kcal/mol]     -62.38386273 [kJ/mol]
    Dispersion sSAPT0             -11.42918911 [mEh]      -7.17192445 [kcal/mol]     -30.00733188 [kJ/mol]
  Total sSAPT0                    -34.22067530 [mEh]     -21.47379795 [kcal/mol]     -89.84637062 [kJ/mol]
  --------------------------------------------------------------------------------------------------------

*** Psi4 exiting successfully. Buy a developer a beer!
