                               Psi4 1.3.2 release

  ==> Input File <==

--------------------------------------------------------------------------
#psi4
#
memory 32 gb

molecule  {
0 1
  C        2.0083120    -0.3372920     0.0000040
  H        3.1030340    -0.4288200    -0.0000030
  O        1.2864570    -1.3299810     0.0000000
  N        1.5810970     0.9343630     0.0000010
  H        0.5827550     1.1459700     0.0000010
  H        2.5389234     1.6391172    -0.0000030
--
0 1
  C       -1.7215566     0.2977302     0.0000010
  H       -2.8162786     0.3892582    -0.0000010
  O       -0.9997016     1.2904192     0.0000000
  N       -1.2943416    -0.9739248     0.0000000
  H       -0.2959996    -1.1855318     0.0000000
  H       -1.9654126    -1.7182408    -0.0000010
units angstrom
no_reorient  #important for SAPT in psi4, default
symmetry c1  #important for SAPT in psi4, default
}

set {
basis aug-cc-pVDZ
scf_type DF
freeze_core True
}
energy('sapt2+')
--------------------------------------------------------------------------

  //              Dimer HF             //
    Molecular point group: c1
  Charge       = 0
  Multiplicity = 1
  Basis Set: AUG-CC-PVDZ
    Blend: AUG-CC-PVDZ
  Basis Set: (AUG-CC-PVDZ AUX)
    Blend: AUG-CC-PVDZ-JKFIT
  @DF-RHF Final Energy:  -337.90514838334099
    Total Energy =                       -337.9051483833409861
  //            Monomer A HF           //
    Molecular point group: c1
  Multiplicity = 1
  Basis Set: AUG-CC-PVDZ
    Blend: AUG-CC-PVDZ
  Basis Set: (AUG-CC-PVDZ AUX)
    Blend: AUG-CC-PVDZ-JKFIT
  @DF-RHF Final Energy:  -168.93108052134176
    Total Energy =                       -168.9310805213417552
  //            Monomer B HF           //
    Molecular point group: c1

    Geometry (in Angstrom), charge = 0, multiplicity = 1:

       Center              X                  Y                   Z               Mass
    ------------   -----------------  -----------------  -----------------  -----------------
      Gh(C)           1.861724727872    -0.317068295956     0.000003256485    12.000000000000
      Gh(H)           2.956446727872    -0.408596295956    -0.000003743515     1.007825032230
      Gh(O)           1.139869727872    -1.309757295956    -0.000000743515    15.994914619570
      Gh(N)           1.434509727872     0.954586704044     0.000000256485    14.003074004430
      Gh(H)           0.436167727872     1.166193704044     0.000000256485     1.007825032230
      Gh(H)           2.392336127872     1.659340904044    -0.000003743515     1.007825032230
         C           -1.868143872128     0.317953904044     0.000000256485    12.000000000000
         H           -2.962865872128     0.409481904044    -0.000001743515     1.007825032230
         O           -1.146288872128     1.310642904044    -0.000000743515    15.994914619570
         N           -1.440928872128    -0.953701095956    -0.000000743515    14.003074004430
         H           -0.442586872128    -1.165308095956    -0.000000743515     1.007825032230
         H           -2.111999872128    -1.698017095956    -0.000001743515     1.007825032230

  Charge       = 0
  Multiplicity = 1
  Basis Set: AUG-CC-PVDZ
    Blend: AUG-CC-PVDZ
  Basis Set: (AUG-CC-PVDZ AUX)
    Blend: AUG-CC-PVDZ-JKFIT

    Orbital Energies [Eh]
    ---------------------

    Doubly Occupied:

       1A    -20.537586     2A    -15.609638     3A    -11.366102
       4A     -1.381700     5A     -1.229954     6A     -0.856334
       7A     -0.757213     8A     -0.678136     9A     -0.604215
      10A     -0.571685    11A     -0.434353    12A     -0.420937

  @DF-RHF Final Energy:  -168.96260754933462

   => Energetics <=

    Nuclear Repulsion Energy =             71.1611145121232624
    One-Electron Energy =                -371.3517370960496464
    Two-Electron Energy =                 131.2280150345917491
    Total Energy =                       -168.9626075493346207

  Dipole Moment: [D]
     X:    -1.5783      Y:    -4.1806      Z:    -0.0000     Total:     4.4686

    SAPT Results
  --------------------------------------------------------------------------------------------------------
    Electrostatics                -66.87875559 [mEh]     -41.96705273 [kcal/mol]    -175.59014862 [kJ/mol]
      Elst10,r                    -67.59425824 [mEh]     -42.41603742 [kcal/mol]    -177.46870057 [kJ/mol]
      Elst12,r                      0.71550265 [mEh]       0.44898469 [kcal/mol]       1.87855195 [kJ/mol]

    Exchange                      103.57659446 [mEh]      64.99529428 [kcal/mol]     271.94031128 [kJ/mol]
      Exch10                       91.56381606 [mEh]      57.45716203 [kcal/mol]     240.40076594 [kJ/mol]
      Exch10(S^2)                  89.14110050 [mEh]      55.93688507 [kcal/mol]     234.03992711 [kJ/mol]
      Exch11(S^2)                  -0.41617076 [mEh]      -0.26115110 [kcal/mol]      -1.09265619 [kJ/mol]
      Exch12(S^2)                  12.42894916 [mEh]       7.79928335 [kcal/mol]      32.63220153 [kJ/mol]

    Induction                     -38.45348217 [mEh]     -24.12992436 [kcal/mol]    -100.95960352 [kJ/mol]
      Ind20,r                     -43.94613634 [mEh]     -27.57661689 [kcal/mol]    -115.38056506 [kJ/mol]
      Ind22                        -7.00539610 [mEh]      -4.39595242 [kcal/mol]     -18.39266492 [kJ/mol]
      Exch-Ind20,r                 24.97846489 [mEh]      15.67422336 [kcal/mol]      65.58095054 [kJ/mol]
      Exch-Ind22                    3.98178441 [mEh]       2.49860744 [kcal/mol]      10.45417352 [kJ/mol]
      delta HF,r (2)              -16.46219903 [mEh]     -10.33018585 [kcal/mol]     -43.22149761 [kJ/mol]

    Dispersion                    -19.35909115 [mEh]     -12.14801310 [kcal/mol]     -50.82728681 [kJ/mol]
      Disp20                      -22.03631661 [mEh]     -13.82799744 [kcal/mol]     -57.85634128 [kJ/mol]
      Disp21                        2.43432922 [mEh]       1.52756465 [kcal/mol]       6.39133050 [kJ/mol]
      Disp22 (SDQ)                 -1.06495950 [mEh]      -0.66827217 [kcal/mol]      -2.79605078 [kJ/mol]
      Disp22 (T)                   -3.34516096 [mEh]      -2.09912020 [kcal/mol]      -8.78271890 [kJ/mol]
      Est. Disp22 (T)              -3.61806036 [mEh]      -2.27036715 [kcal/mol]      -9.49921617 [kJ/mol]
      Exch-Disp20                   4.92591610 [mEh]       3.09105902 [kcal/mol]      12.93299093 [kJ/mol]

  Total HF                        -11.46031266 [mEh]      -7.19145477 [kcal/mol]     -30.08904676 [kJ/mol]
  Total SAPT0                     -28.57071318 [mEh]     -17.92839319 [kcal/mol]     -75.01239711 [kJ/mol]
  Total SAPT2                     -18.86604381 [mEh]     -11.83862123 [kcal/mol]     -49.53279121 [kJ/mol]
  Total SAPT2+                    -21.11473445 [mEh]     -13.24969590 [kcal/mol]     -55.43672767 [kJ/mol]

  Special recipe for scaled SAPT0 (see Manual):
    Electrostatics sSAPT0         -67.59425824 [mEh]     -42.41603742 [kcal/mol]    -177.46870057 [kJ/mol]
    Exchange sSAPT0                91.56381606 [mEh]      57.45716203 [kcal/mol]     240.40076594 [kJ/mol]
    Induction sSAPT0              -33.33738997 [mEh]     -20.91952804 [kcal/mol]     -87.52730532 [kJ/mol]
    Dispersion sSAPT0             -16.69774972 [mEh]     -10.47799614 [kcal/mol]     -43.83993584 [kJ/mol]
  Total sSAPT0                    -26.06558188 [mEh]     -16.35639957 [kcal/mol]     -68.43517579 [kJ/mol]
  --------------------------------------------------------------------------------------------------------

*** Psi4 exiting successfully. Buy a developer a beer!
