                               Psi4 1.3.2 release

  ==> Input File <==

--------------------------------------------------------------------------
#psi4
#
memory 32 gb

molecule  {
0 1
  C       -2.0482690     0.2828850     0.0000130
  H       -3.1457830     0.3491130    -0.0000080
  O       -1.3512910     1.2933720    -0.0000010
  N       -1.5923150    -0.9782630     0.0000040
  H       -0.5837530    -1.1752650     0.0000030
  H       -2.2528990    -1.7321960    -0.0000070
--
0 1
  C        2.2077015    -0.2714993     0.0000040
  H        3.2976135    -0.2977673    -0.0000000
  N        1.4757955    -1.3331583     0.0000020
  H        2.0755605    -2.1494772    -0.0000040
  N        1.6955265     0.9734428    -0.0000000
  H        0.6888865     1.1234187    -0.0000010
  H        2.3114135     1.7609957    -0.0000050
units angstrom
no_reorient  #important for SAPT in psi4, default
symmetry c1  #important for SAPT in psi4, default
}

set {
basis aug-cc-pVDZ
scf_type DF
freeze_core True
}
energy('sapt2+')
--------------------------------------------------------------------------

  //              Dimer HF             //
    Molecular point group: c1
  Charge       = 0
  Multiplicity = 1
  Basis Set: AUG-CC-PVDZ
    Blend: AUG-CC-PVDZ
  Basis Set: (AUG-CC-PVDZ AUX)
    Blend: AUG-CC-PVDZ-JKFIT
  @DF-RHF Final Energy:  -318.08986313405848
    Total Energy =                       -318.0898631340584757
  //            Monomer A HF           //
    Molecular point group: c1
  Multiplicity = 1
  Basis Set: AUG-CC-PVDZ
    Blend: AUG-CC-PVDZ
  Basis Set: (AUG-CC-PVDZ AUX)
    Blend: AUG-CC-PVDZ-JKFIT
  @DF-RHF Final Energy:  -168.96196727711188
    Total Energy =                       -168.9619672771118815
  //            Monomer B HF           //
    Molecular point group: c1

    Geometry (in Angstrom), charge = 0, multiplicity = 1:

       Center              X                  Y                   Z               Mass
    ------------   -----------------  -----------------  -----------------  -----------------
      Gh(C)          -2.102391676327     0.283441768845     0.000010194538    12.000000000000
      Gh(H)          -3.199905676327     0.349669768845    -0.000010805462     1.007825032230
      Gh(O)          -1.405413676327     1.293928768845    -0.000003805462    15.994914619570
      Gh(N)          -1.646437676327    -0.977706231155     0.000001194538    14.003074004430
      Gh(H)          -0.637875676327    -1.174708231155     0.000000194538     1.007825032230
      Gh(H)          -2.307021676327    -1.731639231155    -0.000009805462     1.007825032230
         C            2.153578823673    -0.270942531155     0.000001194538    12.000000000000
         H            3.243490823673    -0.297210531155    -0.000002805462     1.007825032230
         N            1.421672823673    -1.332601531155    -0.000000805462    14.003074004430
         H            2.021437823673    -2.148920431155    -0.000006805462     1.007825032230
         N            1.641403823673     0.973999568845    -0.000002805462    14.003074004430
         H            0.634763823673     1.123975468845    -0.000003805462     1.007825032230
         H            2.257290823673     1.761552468845    -0.000007805462     1.007825032230

  Charge       = 0
  Multiplicity = 1
  Basis Set: AUG-CC-PVDZ
    Blend: AUG-CC-PVDZ
  Basis Set: (AUG-CC-PVDZ AUX)
    Blend: AUG-CC-PVDZ-JKFIT

    Orbital Energies [Eh]
    ---------------------

    Doubly Occupied:

       1A    -15.588416     2A    -15.528852     3A    -11.323109
       4A     -1.262350     5A     -1.139977     6A     -0.832241
       7A     -0.747450     8A     -0.640362     9A     -0.617066
      10A     -0.529307    11A     -0.419332    12A     -0.358422

  @DF-RHF Final Energy:  -149.10890202279623

   => Energetics <=

    Nuclear Repulsion Energy =             72.2208391453814045
    One-Electron Energy =                -344.6857130867472279
    Two-Electron Energy =                 123.3559719185695656
    Total Energy =                       -149.1089020227962294

  Dipole Moment: [D]
     X:     2.1511      Y:     2.4652      Z:    -0.0000     Total:     3.2718

    SAPT Results
  --------------------------------------------------------------------------------------------------------
    Electrostatics                -31.55419250 [mEh]     -19.80055473 [kcal/mol]     -82.84552100 [kJ/mol]
      Elst10,r                    -32.10920968 [mEh]     -20.14883327 [kcal/mol]     -84.30271841 [kJ/mol]
      Elst12,r                      0.55501718 [mEh]       0.34827854 [kcal/mol]       1.45719740 [kJ/mol]

    Exchange                       28.29514319 [mEh]      17.75547041 [kcal/mol]      74.28888821 [kJ/mol]
      Exch10                       23.97719218 [mEh]      15.04591525 [kcal/mol]      62.95210939 [kJ/mol]
      Exch10(S^2)                  23.74812154 [mEh]      14.90217125 [kcal/mol]      62.35068450 [kJ/mol]
      Exch11(S^2)                  -0.04724009 [mEh]      -0.02964360 [kcal/mol]      -0.12402883 [kJ/mol]
      Exch12(S^2)                   4.36519110 [mEh]       2.73919877 [kcal/mol]      11.46080765 [kJ/mol]

    Induction                     -11.78119175 [mEh]      -7.39280944 [kcal/mol]     -30.93151468 [kJ/mol]
      Ind20,r                     -12.53142488 [mEh]      -7.86358783 [kcal/mol]     -32.90125148 [kJ/mol]
      Ind22                        -1.74949820 [mEh]      -1.09782669 [kcal/mol]      -4.59330689 [kJ/mol]
      Exch-Ind20,r                  5.94606223 [mEh]       3.73121038 [kcal/mol]      15.61138424 [kJ/mol]
      Exch-Ind22                    0.83012309 [mEh]       0.52091010 [kcal/mol]       2.17948788 [kJ/mol]
      delta HF,r (2)               -4.27645400 [mEh]      -2.68351540 [kcal/mol]     -11.22782843 [kJ/mol]

    Dispersion                     -9.20651906 [mEh]      -5.77717793 [kcal/mol]     -24.17171246 [kJ/mol]
      Disp20                       -9.58541736 [mEh]      -6.01494021 [kcal/mol]     -25.16650982 [kJ/mol]
      Disp21                        0.71578484 [mEh]       0.44916177 [kcal/mol]       1.87929284 [kJ/mol]
      Disp22 (SDQ)                 -0.32232531 [mEh]      -0.20226219 [kcal/mol]      -0.84626499 [kJ/mol]
      Disp22 (T)                   -1.48837557 [mEh]      -0.93396977 [kcal/mol]      -3.90772952 [kJ/mol]
      Est. Disp22 (T)              -1.66754422 [mEh]      -1.04639979 [kcal/mol]      -4.37813674 [kJ/mol]
      Exch-Disp20                   1.65298299 [mEh]       1.03726249 [kcal/mol]       4.33990624 [kJ/mol]

  Total HF                        -18.99383415 [mEh]     -11.91881087 [kcal/mol]     -49.86830469 [kJ/mol]
  Total SAPT0                     -26.92626852 [mEh]     -16.89648859 [kcal/mol]     -70.69490827 [kJ/mol]
  Total SAPT2                     -22.97267544 [mEh]     -14.41557148 [kcal/mol]     -60.31475106 [kJ/mol]
  Total SAPT2+                    -24.24676013 [mEh]     -15.21507169 [kcal/mol]     -63.65985994 [kJ/mol]

  Special recipe for scaled SAPT0 (see Manual):
    Electrostatics sSAPT0         -32.10920968 [mEh]     -20.14883327 [kcal/mol]     -84.30271841 [kJ/mol]
    Exchange sSAPT0                23.97719218 [mEh]      15.04591525 [kcal/mol]      62.95210939 [kJ/mol]
    Induction sSAPT0              -10.68808726 [mEh]      -6.70687601 [kcal/mol]     -28.06156924 [kJ/mol]
    Dispersion sSAPT0              -7.88413826 [mEh]      -4.94737145 [kcal/mol]     -20.69980214 [kJ/mol]
  Total sSAPT0                    -26.70424302 [mEh]     -16.75716549 [kcal/mol]     -70.11198040 [kJ/mol]
  --------------------------------------------------------------------------------------------------------

*** Psi4 exiting successfully. Buy a developer a beer!
