                               Psi4 1.3.2 release

  ==> Input File <==

--------------------------------------------------------------------------
#psi4
#
memory 32 gb

molecule  {
0 1
  C       -2.0482690     0.2828850     0.0000130
  H       -3.1457830     0.3491130    -0.0000080
  O       -1.3512910     1.2933720    -0.0000010
  N       -1.5923150    -0.9782630     0.0000040
  H       -0.5837530    -1.1752650     0.0000030
  H       -2.2528990    -1.7321960    -0.0000070
--
0 1
  C        1.7709209    -0.2232975     0.0000041
  H        2.8608329    -0.2495655     0.0000000
  N        1.0390150    -1.2849565     0.0000020
  H        1.6387799    -2.1012755    -0.0000039
  N        1.2587460     1.0216445     0.0000000
  H        0.2521060     1.1716205    -0.0000010
  H        1.8746330     1.8091975    -0.0000050
units angstrom
no_reorient  #important for SAPT in psi4, default
symmetry c1  #important for SAPT in psi4, default
}

set {
basis aug-cc-pVDZ
scf_type DF
freeze_core True
}
energy('sapt2+')
--------------------------------------------------------------------------

  //              Dimer HF             //
    Molecular point group: c1
  Charge       = 0
  Multiplicity = 1
  Basis Set: AUG-CC-PVDZ
    Blend: AUG-CC-PVDZ
  Basis Set: (AUG-CC-PVDZ AUX)
    Blend: AUG-CC-PVDZ-JKFIT
  @DF-RHF Final Energy:  -318.07860914014310
    Total Energy =                       -318.0786091401431008
  //            Monomer A HF           //
    Molecular point group: c1
  Multiplicity = 1
  Basis Set: AUG-CC-PVDZ
    Blend: AUG-CC-PVDZ
  Basis Set: (AUG-CC-PVDZ AUX)
    Blend: AUG-CC-PVDZ-JKFIT
  @DF-RHF Final Energy:  -168.96220680866912
    Total Energy =                       -168.9622068086691229
  //            Monomer B HF           //
    Molecular point group: c1

    Geometry (in Angstrom), charge = 0, multiplicity = 1:

       Center              X                  Y                   Z               Mass
    ------------   -----------------  -----------------  -----------------  -----------------
      Gh(C)          -1.886414413451     0.259607177536     0.000010179932    12.000000000000
      Gh(H)          -2.983928413451     0.325835177536    -0.000010820068     1.007825032230
      Gh(O)          -1.189436413451     1.270094177536    -0.000003820068    15.994914619570
      Gh(N)          -1.430460413451    -1.001540822464     0.000001179932    14.003074004430
      Gh(H)          -0.421898413451    -1.198542822464     0.000000179932     1.007825032230
      Gh(H)          -2.091044413451    -1.755473822464    -0.000009820068     1.007825032230
         C            1.932775486549    -0.246575322464     0.000001279932    12.000000000000
         H            3.022687486549    -0.272843322464    -0.000002820068     1.007825032230
         N            1.200869586549    -1.308234322464    -0.000000820068    14.003074004430
         H            1.800634486549    -2.124553322464    -0.000006720068     1.007825032230
         N            1.420600586549     0.998366677536    -0.000002820068    14.003074004430
         H            0.413960586549     1.148342677536    -0.000003820068     1.007825032230
         H            2.036487586549     1.785919677536    -0.000007820068     1.007825032230

  Charge       = 0
  Multiplicity = 1
  Basis Set: AUG-CC-PVDZ
    Blend: AUG-CC-PVDZ
  Basis Set: (AUG-CC-PVDZ AUX)
    Blend: AUG-CC-PVDZ-JKFIT

    Orbital Energies [Eh]
    ---------------------

    Doubly Occupied:

       1A    -15.588321     2A    -15.528710     3A    -11.322968
       4A     -1.262325     5A     -1.139955     6A     -0.832228
       7A     -0.747451     8A     -0.640377     9A     -0.617098
      10A     -0.529285    11A     -0.419290    12A     -0.358391

  @DF-RHF Final Energy:  -149.10917085178070

   => Energetics <=

    Nuclear Repulsion Energy =             72.2208417226619872
    One-Electron Energy =                -344.6872230786021305
    Two-Electron Energy =                 123.3572105041594398
    Total Energy =                       -149.1091708517807035

  Dipole Moment: [D]
     X:     2.1495      Y:     2.4655      Z:    -0.0000     Total:     3.2709

    SAPT Results
  --------------------------------------------------------------------------------------------------------
    Electrostatics                -71.74778465 [mEh]     -45.02241459 [kcal/mol]    -188.37378264 [kJ/mol]
      Elst10,r                    -71.32982634 [mEh]     -44.76014179 [kcal/mol]    -187.27643324 [kJ/mol]
      Elst12,r                     -0.41795831 [mEh]      -0.26227280 [kcal/mol]      -1.09734939 [kJ/mol]

    Exchange                      112.34430294 [mEh]      70.49711442 [kcal/mol]     294.95992673 [kJ/mol]
      Exch10                      101.57150146 [mEh]      63.73707943 [kcal/mol]     266.67594034 [kJ/mol]
      Exch10(S^2)                  98.32988398 [mEh]      61.70293375 [kcal/mol]     258.16507482 [kJ/mol]
      Exch11(S^2)                   0.09318196 [mEh]       0.05847256 [kcal/mol]       0.24464920 [kJ/mol]
      Exch12(S^2)                  10.67961952 [mEh]       6.70156243 [kcal/mol]      28.03933719 [kJ/mol]

    Induction                     -40.24890689 [mEh]     -25.25657039 [kcal/mol]    -105.67349049 [kJ/mol]
      Ind20,r                     -47.67166108 [mEh]     -29.91441896 [kcal/mol]    -125.16192893 [kJ/mol]
      Ind22                        -6.46764686 [mEh]      -4.05850968 [kcal/mol]     -16.98080448 [kJ/mol]
      Exch-Ind20,r                 27.21217787 [mEh]      17.07589942 [kcal/mol]      71.44556316 [kJ/mol]
      Exch-Ind22                    3.69189478 [mEh]       2.31669895 [kcal/mol]       9.69306841 [kJ/mol]
      delta HF,r (2)              -17.01367161 [mEh]     -10.67624012 [kcal/mol]     -44.66938865 [kJ/mol]

    Dispersion                    -20.59077878 [mEh]     -12.92090876 [kcal/mol]     -54.06108224 [kJ/mol]
      Disp20                      -24.10353088 [mEh]     -15.12519398 [kcal/mol]     -63.28381162 [kJ/mol]
      Disp21                        2.56156558 [mEh]       1.60740667 [kcal/mol]       6.72538950 [kJ/mol]
      Disp22 (SDQ)                 -0.74496633 [mEh]      -0.46747343 [kcal/mol]      -1.95590883 [kJ/mol]
      Disp22 (T)                   -3.47755288 [mEh]      -2.18219738 [kcal/mol]      -9.13031382 [kJ/mol]
      Est. Disp22 (T)              -3.76391508 [mEh]      -2.36189237 [kcal/mol]      -9.88215768 [kJ/mol]
      Exch-Disp20                   5.46006793 [mEh]       3.42624435 [kcal/mol]      14.33540638 [kJ/mol]

  Total HF                         -7.23147969 [mEh]      -4.53782202 [kcal/mol]     -18.98624732 [kJ/mol]
  Total SAPT0                     -25.87494264 [mEh]     -16.23677164 [kcal/mol]     -67.93465255 [kJ/mol]
  Total SAPT2                     -18.29585155 [mEh]     -11.48082018 [kcal/mol]     -48.03575163 [kJ/mol]
  Total SAPT2+                    -20.24316738 [mEh]     -12.70277931 [kcal/mol]     -53.14842864 [kJ/mol]

  Special recipe for scaled SAPT0 (see Manual):
    Electrostatics sSAPT0         -71.32982634 [mEh]     -44.76014179 [kcal/mol]    -187.27643324 [kJ/mol]
    Exchange sSAPT0               101.57150146 [mEh]      63.73707943 [kcal/mol]     266.67594034 [kJ/mol]
    Induction sSAPT0              -34.69216484 [mEh]     -21.76966210 [kcal/mol]     -91.08426624 [kJ/mol]
    Dispersion sSAPT0             -18.08546299 [mEh]     -11.34879936 [kcal/mol]     -47.48337654 [kJ/mol]
  Total sSAPT0                    -22.53595271 [mEh]     -14.14152382 [kcal/mol]     -59.16813568 [kJ/mol]
  --------------------------------------------------------------------------------------------------------

*** Psi4 exiting successfully. Buy a developer a beer!
