                               Psi4 1.3.2 release

  ==> Input File <==

--------------------------------------------------------------------------
#psi4
#
memory 32 gb

molecule  {
0 1
  C       -2.0482690     0.2828850     0.0000130
  H       -3.1457830     0.3491130    -0.0000080
  O       -1.3512910     1.2933720    -0.0000010
  N       -1.5923150    -0.9782630     0.0000040
  H       -0.5837530    -1.1752650     0.0000030
  H       -2.2528990    -1.7321960    -0.0000070
--
0 1
  C        2.3532951    -0.2875665     0.0000039
  H        3.4432071    -0.3138345    -0.0000001
  N        1.6213891    -1.3492255     0.0000019
  H        2.2211541    -2.1655445    -0.0000041
  N        1.8411201     0.9573755    -0.0000001
  H        0.8344801     1.1073515    -0.0000011
  H        2.4570071     1.7449285    -0.0000051
units angstrom
no_reorient  #important for SAPT in psi4, default
symmetry c1  #important for SAPT in psi4, default
}

set {
basis aug-cc-pVDZ
scf_type DF
freeze_core True
}
energy('sapt2+')
--------------------------------------------------------------------------

  //              Dimer HF             //
    Molecular point group: c1
  Charge       = 0
  Multiplicity = 1
  Basis Set: AUG-CC-PVDZ
    Blend: AUG-CC-PVDZ
  Basis Set: (AUG-CC-PVDZ AUX)
    Blend: AUG-CC-PVDZ-JKFIT
  @DF-RHF Final Energy:  -318.08900011893599
    Total Energy =                       -318.0890001189359850
  //            Monomer A HF           //
    Molecular point group: c1
  Multiplicity = 1
  Basis Set: AUG-CC-PVDZ
    Blend: AUG-CC-PVDZ
  Basis Set: (AUG-CC-PVDZ AUX)
    Blend: AUG-CC-PVDZ-JKFIT
  @DF-RHF Final Energy:  -168.96189707221112
    Total Energy =                       -168.9618970722111158
  //            Monomer B HF           //
    Molecular point group: c1

    Geometry (in Angstrom), charge = 0, multiplicity = 1:

       Center              X                  Y                   Z               Mass
    ------------   -----------------  -----------------  -----------------  -----------------
      Gh(C)          -2.174384141487     0.291386622123     0.000010243986    12.000000000000
      Gh(H)          -3.271898141487     0.357614622123    -0.000010756014     1.007825032230
      Gh(O)          -1.477406141487     1.301873622123    -0.000003756014    15.994914619570
      Gh(N)          -1.718430141487    -0.969761377877     0.000001243986    14.003074004430
      Gh(H)          -0.709868141487    -1.166763377877     0.000000243986     1.007825032230
      Gh(H)          -2.379014141487    -1.723694377877    -0.000009756014     1.007825032230
         C            2.227179958513    -0.279064877877     0.000001143986    12.000000000000
         H            3.317091958513    -0.305332877877    -0.000002856014     1.007825032230
         N            1.495273958513    -1.340723877877    -0.000000856014    14.003074004430
         H            2.095038958513    -2.157042877877    -0.000006856014     1.007825032230
         N            1.715004958513     0.965877122123    -0.000002856014    14.003074004430
         H            0.708364958513     1.115853122123    -0.000003856014     1.007825032230
         H            2.330891958513     1.753430122123    -0.000007856014     1.007825032230

  Charge       = 0
  Multiplicity = 1
  Basis Set: AUG-CC-PVDZ
    Blend: AUG-CC-PVDZ
  Basis Set: (AUG-CC-PVDZ AUX)
    Blend: AUG-CC-PVDZ-JKFIT

    Orbital Energies [Eh]
    ---------------------

    Doubly Occupied:

       1A    -15.588421     2A    -15.528837     3A    -11.323156
       4A     -1.262358     5A     -1.139983     6A     -0.832245
       7A     -0.747450     8A     -0.640366     9A     -0.617056
      10A     -0.529316    11A     -0.419343    12A     -0.358432

  @DF-RHF Final Energy:  -149.10883186961703

   => Energetics <=

    Nuclear Repulsion Energy =             72.2208400742530330
    One-Electron Energy =                -344.6854200876402956
    Two-Electron Energy =                 123.3557481437702279
    Total Energy =                       -149.1088318696170347

  Dipole Moment: [D]
     X:     2.1517      Y:     2.4653      Z:    -0.0000     Total:     3.2722

    SAPT Results
  --------------------------------------------------------------------------------------------------------
    Electrostatics                -24.92639982 [mEh]     -15.64155204 [kcal/mol]     -65.44425372 [kJ/mol]
      Elst10,r                    -25.62568632 [mEh]     -16.08036094 [kcal/mol]     -67.28023016 [kJ/mol]
      Elst12,r                      0.69928650 [mEh]       0.43880890 [kcal/mol]       1.83597644 [kJ/mol]

    Exchange                       17.80097778 [mEh]      11.17028220 [kcal/mol]      46.73646072 [kJ/mol]
      Exch10                       14.76001141 [mEh]       9.26204699 [kcal/mol]      38.75240461 [kJ/mol]
      Exch10(S^2)                  14.66581154 [mEh]       9.20293568 [kcal/mol]      38.50508289 [kJ/mol]
      Exch11(S^2)                  -0.05439562 [mEh]      -0.03413376 [kcal/mol]      -0.14281567 [kJ/mol]
      Exch12(S^2)                   3.09536199 [mEh]       1.94236897 [kcal/mol]       8.12687178 [kJ/mol]

    Induction                      -8.05444751 [mEh]      -5.05424212 [kcal/mol]     -21.14694903 [kJ/mol]
      Ind20,r                      -8.32453184 [mEh]      -5.22372260 [kcal/mol]     -21.85605535 [kJ/mol]
      Ind22                        -1.13495360 [mEh]      -0.71219414 [kcal/mol]      -2.97982027 [kJ/mol]
      Exch-Ind20,r                  3.56471967 [mEh]       2.23689536 [kcal/mol]       9.35917020 [kJ/mol]
      Exch-Ind22                    0.48600828 [mEh]       0.30497480 [kcal/mol]       1.27601457 [kJ/mol]
      delta HF,r (2)               -2.64569002 [mEh]      -1.66019555 [kcal/mol]      -6.94625818 [kJ/mol]

    Dispersion                     -7.12939236 [mEh]      -4.47376125 [kcal/mol]     -18.71821705 [kJ/mol]
      Disp20                       -7.17404892 [mEh]      -4.50178366 [kcal/mol]     -18.83546284 [kJ/mol]
      Disp21                        0.49535686 [mEh]       0.31084112 [kcal/mol]       1.30055926 [kJ/mol]
      Disp22 (SDQ)                 -0.25193180 [mEh]      -0.15808959 [kcal/mol]      -0.66144686 [kJ/mol]
      Disp22 (T)                   -1.15713842 [mEh]      -0.72611532 [kcal/mol]      -3.03806651 [kJ/mol]
      Est. Disp22 (T)              -1.28215867 [mEh]      -0.80456671 [kcal/mol]      -3.36630713 [kJ/mol]
      Exch-Disp20                   1.08339017 [mEh]       0.67983760 [kcal/mol]       2.84444051 [kJ/mol]

  Total HF                        -18.27117711 [mEh]     -11.46533673 [kcal/mol]     -47.97096889 [kJ/mol]
  Total SAPT0                     -24.36183585 [mEh]     -15.28728279 [kcal/mol]     -63.96199121 [kJ/mol]
  Total SAPT2                     -21.27052830 [mEh]     -13.34745802 [kcal/mol]     -55.84576435 [kJ/mol]
  Total SAPT2+                    -22.30926191 [mEh]     -13.99927320 [kcal/mol]     -58.57295908 [kJ/mol]

  Special recipe for scaled SAPT0 (see Manual):
    Electrostatics sSAPT0         -25.62568632 [mEh]     -16.08036094 [kcal/mol]     -67.28023016 [kJ/mol]
    Exchange sSAPT0                14.76001141 [mEh]       9.26204699 [kcal/mol]      38.75240461 [kJ/mol]
    Induction sSAPT0               -7.33637047 [mEh]      -4.60364198 [kcal/mol]     -19.26163803 [kJ/mol]
    Dispersion sSAPT0              -6.06964822 [mEh]      -3.80876176 [kcal/mol]     -15.93585920 [kJ/mol]
  Total sSAPT0                    -24.27169361 [mEh]     -15.23071768 [kcal/mol]     -63.72532279 [kJ/mol]
  --------------------------------------------------------------------------------------------------------

*** Psi4 exiting successfully. Buy a developer a beer!
