                               Psi4 1.3.2 release

  ==> Input File <==

--------------------------------------------------------------------------
#psi4
#
memory 32 gb

molecule  {
0 1
  C       -1.9644470     0.1609890    -0.0000020
  H       -3.0589320     0.1627090    -0.0000040
  O       -1.3160380     1.1929960    -0.0000020
  O       -1.4968300    -1.0660630     0.0000020
  H       -0.4778920    -1.0649310     0.0000090
--
0 1
  C        1.7232828    -0.1722407    -0.0000031
  H        2.8050987    -0.2944657    -0.0000051
  N        0.9054918    -1.1696077    -0.0000010
  H        1.4160868    -2.0431127    -0.0000010
  N        1.3084328     1.1045833     0.0000019
  H        0.3124158     1.3031163     0.0000010
  H        1.9753527     1.8492593     0.0000039
units angstrom
no_reorient  #important for SAPT in psi4, default
symmetry c1  #important for SAPT in psi4, default
}

set {
basis aug-cc-pVDZ
scf_type DF
freeze_core True
}
energy('sapt2+')
--------------------------------------------------------------------------

  //              Dimer HF             //
    Molecular point group: c1
  Charge       = 0
  Multiplicity = 1
  Basis Set: AUG-CC-PVDZ
    Blend: AUG-CC-PVDZ
  Basis Set: (AUG-CC-PVDZ AUX)
    Blend: AUG-CC-PVDZ-JKFIT
  @DF-RHF Final Energy:  -337.91507961045068
    Total Energy =                       -337.9150796104506753
  //            Monomer A HF           //
    Molecular point group: c1
  Multiplicity = 1
  Basis Set: AUG-CC-PVDZ
    Blend: AUG-CC-PVDZ
  Basis Set: (AUG-CC-PVDZ AUX)
    Blend: AUG-CC-PVDZ-JKFIT
  @DF-RHF Final Energy:  -188.79242211892659
    Total Energy =                       -188.7924221189265950
  //            Monomer B HF           //
    Molecular point group: c1

    Geometry (in Angstrom), charge = 0, multiplicity = 1:

       Center              X                  Y                   Z               Mass
    ------------   -----------------  -----------------  -----------------  -----------------
      Gh(C)          -1.810204826143     0.151031397158    -0.000001502820    12.000000000000
      Gh(H)          -2.904689826143     0.152751397158    -0.000003502820     1.007825032230
      Gh(O)          -1.161795826143     1.183038397158    -0.000001502820    15.994914619570
      Gh(O)          -1.342587826143    -1.076020602842     0.000002497180    15.994914619570
      Gh(H)          -0.323649826143    -1.074888602842     0.000009497180     1.007825032230
         C            1.877524973857    -0.182198302842    -0.000002602820    12.000000000000
         H            2.959340873857    -0.304423302842    -0.000004602820     1.007825032230
         N            1.059733973857    -1.179565302842    -0.000000502820    14.003074004430
         H            1.570328973857    -2.053070302842    -0.000000502820     1.007825032230
         N            1.462674973857     1.094625697158     0.000002397180    14.003074004430
         H            0.466657973857     1.293158697158     0.000001497180     1.007825032230
         H            2.129594873857     1.839301697158     0.000004397180     1.007825032230

  Charge       = 0
  Multiplicity = 1
  Basis Set: AUG-CC-PVDZ
    Blend: AUG-CC-PVDZ
  Basis Set: (AUG-CC-PVDZ AUX)
    Blend: AUG-CC-PVDZ-JKFIT

    Orbital Energies [Eh]
    ---------------------

    Doubly Occupied:

       1A    -15.588093     2A    -15.527470     3A    -11.322223
       4A     -1.263838     5A     -1.138674     6A     -0.831981
       7A     -0.750076     8A     -0.640895     9A     -0.618645
      10A     -0.530055    11A     -0.417115    12A     -0.357661

  @DF-RHF Final Energy:  -149.10930023682079

   => Energetics <=

    Nuclear Repulsion Energy =             72.3341935036807371
    One-Electron Energy =                -344.9135366746797899
    Two-Electron Energy =                 123.4700429341782524
    Total Energy =                       -149.1093002368207863

  Dipole Moment: [D]
     X:     2.3277      Y:     2.2580      Z:    -0.0000     Total:     3.2429

    SAPT Results
  --------------------------------------------------------------------------------------------------------
    Electrostatics                -93.77417475 [mEh]     -58.84418305 [kcal/mol]    -246.20406189 [kJ/mol]
      Elst10,r                    -93.58613509 [mEh]     -58.72618639 [kcal/mol]    -245.71036384 [kJ/mol]
      Elst12,r                     -0.18803966 [mEh]      -0.11799667 [kcal/mol]      -0.49369805 [kJ/mol]

    Exchange                      156.05311276 [mEh]      97.92480667 [kcal/mol]     409.71739111 [kJ/mol]
      Exch10                      142.39688049 [mEh]      89.35539154 [kcal/mol]     373.86295822 [kJ/mol]
      Exch10(S^2)                 135.46926895 [mEh]      85.00824967 [kcal/mol]     355.67451662 [kJ/mol]
      Exch11(S^2)                   0.23171747 [mEh]       0.14540491 [kcal/mol]       0.60837414 [kJ/mol]
      Exch12(S^2)                  13.42451480 [mEh]       8.42401022 [kcal/mol]      35.24605875 [kJ/mol]

    Induction                     -66.75168243 [mEh]     -41.88731311 [kcal/mol]    -175.25651807 [kJ/mol]
      Ind20,r                     -77.97494159 [mEh]     -48.93001456 [kcal/mol]    -204.72318093 [kJ/mol]
      Ind22                        -9.99564869 [mEh]      -6.27236425 [kcal/mol]     -26.24357202 [kJ/mol]
      Exch-Ind20,r                 42.21814648 [mEh]      26.49228688 [kcal/mol]     110.84372832 [kJ/mol]
      Exch-Ind22                    5.41196636 [mEh]       3.39606016 [kcal/mol]      14.20911571 [kJ/mol]
      delta HF,r (2)              -26.41120499 [mEh]     -16.57328135 [kcal/mol]     -69.34260916 [kJ/mol]

    Dispersion                    -25.21559910 [mEh]     -15.82302732 [kcal/mol]     -66.20354630 [kJ/mol]
      Disp20                      -29.74780150 [mEh]     -18.66702726 [kcal/mol]     -78.10284207 [kJ/mol]
      Disp21                        3.75667696 [mEh]       2.35735038 [kcal/mol]       9.86315399 [kJ/mol]
      Disp22 (SDQ)                 -1.37399829 [mEh]      -0.86219694 [kcal/mol]      -3.60743201 [kJ/mol]
      Disp22 (T)                   -4.39866777 [mEh]      -2.76020570 [kcal/mol]     -11.54870065 [kJ/mol]
      Est. Disp22 (T)              -4.75186007 [mEh]      -2.98183721 [kcal/mol]     -12.47600688 [kJ/mol]
      Exch-Disp20                   6.90138380 [mEh]       4.33068372 [kcal/mol]      18.11958067 [kJ/mol]

  Total HF                        -13.35725470 [mEh]      -8.38180387 [kcal/mol]     -35.06946739 [kJ/mol]
  Total SAPT0                     -36.20367240 [mEh]     -22.71814742 [kcal/mol]     -95.05272879 [kJ/mol]
  Total SAPT2                     -27.31916211 [mEh]     -17.14303304 [kcal/mol]     -71.72645024 [kJ/mol]
  Total SAPT2+                    -29.68834351 [mEh]     -18.62971681 [kcal/mol]     -77.94673515 [kJ/mol]

  Special recipe for scaled SAPT0 (see Manual):
    Electrostatics sSAPT0         -93.58613509 [mEh]     -58.72618639 [kcal/mol]    -245.71036384 [kJ/mol]
    Exchange sSAPT0               142.39688049 [mEh]      89.35539154 [kcal/mol]     373.86295822 [kJ/mol]
    Induction sSAPT0              -55.35430257 [mEh]     -34.73534928 [kcal/mol]    -145.33270138 [kJ/mol]
    Dispersion sSAPT0             -21.73258524 [mEh]     -13.63740313 [kcal/mol]     -57.05889469 [kJ/mol]
  Total sSAPT0                    -28.27614242 [mEh]     -17.74354725 [kcal/mol]     -74.23900170 [kJ/mol]
  --------------------------------------------------------------------------------------------------------

*** Psi4 exiting successfully. Buy a developer a beer!
