                               Psi4 1.3.2 release

  ==> Input File <==

--------------------------------------------------------------------------
#psi4
#
memory 32 gb

molecule  {
0 1
  C        2.0083120    -0.3372920     0.0000040
  H        3.1030340    -0.4288200    -0.0000030
  O        1.2864570    -1.3299810     0.0000000
  N        1.5810970     0.9343630     0.0000010
  H        0.5827550     1.1459700     0.0000010
  H        2.1087903     1.6984599    -0.0000030
--
0 1
  C       -2.1516897     0.3570729     0.0000010
  H       -3.2464117     0.4486009    -0.0000010
  O       -1.4298347     1.3497619    -0.0000000
  N       -1.7244747    -0.9145821    -0.0000000
  H       -0.7261327    -1.1261891    -0.0000000
  H       -2.3955457    -1.6588981    -0.0000010
units angstrom
no_reorient  #important for SAPT in psi4, default
symmetry c1  #important for SAPT in psi4, default
}

set {
basis aug-cc-pVDZ
scf_type DF
freeze_core True
}
energy('sapt2+')
--------------------------------------------------------------------------

  //              Dimer HF             //
    Molecular point group: c1
  Charge       = 0
  Multiplicity = 1
  Basis Set: AUG-CC-PVDZ
    Blend: AUG-CC-PVDZ
  Basis Set: (AUG-CC-PVDZ AUX)
    Blend: AUG-CC-PVDZ-JKFIT
  @DF-RHF Final Energy:  -337.93802796318460
    Total Energy =                       -337.9380279631845951
  //            Monomer A HF           //
    Molecular point group: c1
  Multiplicity = 1
  Basis Set: AUG-CC-PVDZ
    Blend: AUG-CC-PVDZ
  Basis Set: (AUG-CC-PVDZ AUX)
    Blend: AUG-CC-PVDZ-JKFIT
  @DF-RHF Final Energy:  -168.95630882453065
    Total Energy =                       -168.9563088245306517
  //            Monomer B HF           //
    Molecular point group: c1

    Geometry (in Angstrom), charge = 0, multiplicity = 1:

       Center              X                  Y                   Z               Mass
    ------------   -----------------  -----------------  -----------------  -----------------
      Gh(C)           2.081605636064    -0.347403852022     0.000003256485    12.000000000000
      Gh(H)           3.176327636064    -0.438931852022    -0.000003743515     1.007825032230
      Gh(O)           1.359750636064    -1.340092852022    -0.000000743515    15.994914619570
      Gh(N)           1.654390636064     0.924251147978     0.000000256485    14.003074004430
      Gh(H)           0.656048636064     1.135858147978     0.000000256485     1.007825032230
      Gh(H)           2.182083936064     1.688348047978    -0.000003743515     1.007825032230
         C           -2.078396063936     0.346961047978     0.000000256485    12.000000000000
         H           -3.173118063936     0.438489047978    -0.000001743515     1.007825032230
         O           -1.356541063936     1.339650047978    -0.000000743515    15.994914619570
         N           -1.651181063936    -0.924693952022    -0.000000743515    14.003074004430
         H           -0.652839063936    -1.136300952022    -0.000000743515     1.007825032230
         H           -2.322252063936    -1.669009952022    -0.000001743515     1.007825032230

  Charge       = 0
  Multiplicity = 1
  Basis Set: AUG-CC-PVDZ
    Blend: AUG-CC-PVDZ
  Basis Set: (AUG-CC-PVDZ AUX)
    Blend: AUG-CC-PVDZ-JKFIT

    Orbital Energies [Eh]
    ---------------------

    Doubly Occupied:

       1A    -20.537355     2A    -15.609763     3A    -11.366228
       4A     -1.381752     5A     -1.229997     6A     -0.856357
       7A     -0.757254     8A     -0.678147     9A     -0.604242
      10A     -0.571741    11A     -0.434402    12A     -0.420996

  @DF-RHF Final Energy:  -168.96239641163530

   => Energetics <=

    Nuclear Repulsion Energy =             71.1611145121232624
    One-Electron Energy =                -371.3505537214227274
    Two-Electron Energy =                 131.2270427976641543
    Total Energy =                       -168.9623964116352965

  Dipole Moment: [D]
     X:    -1.5816      Y:    -4.1814      Z:    -0.0000     Total:     4.4705

    SAPT Results
  --------------------------------------------------------------------------------------------------------
    Electrostatics                -29.36875418 [mEh]     -18.42917148 [kcal/mol]     -77.10765348 [kJ/mol]
      Elst10,r                    -30.70934255 [mEh]     -19.27040339 [kcal/mol]     -80.62736776 [kJ/mol]
      Elst12,r                      1.34058837 [mEh]       0.84123190 [kcal/mol]       3.51971428 [kJ/mol]

    Exchange                       25.54576628 [mEh]      16.03021036 [kcal/mol]      67.07040014 [kJ/mol]
      Exch10                       21.07610178 [mEh]      13.22545354 [kcal/mol]      55.33529761 [kJ/mol]
      Exch10(S^2)                  20.91416507 [mEh]      13.12383671 [kcal/mol]      54.91013281 [kJ/mol]
      Exch11(S^2)                  -0.13652442 [mEh]      -0.08567036 [kcal/mol]      -0.35844480 [kJ/mol]
      Exch12(S^2)                   4.60618892 [mEh]       2.89042718 [kcal/mol]      12.09354733 [kJ/mol]

    Induction                     -10.64138188 [mEh]      -6.67756794 [kcal/mol]     -27.93894427 [kJ/mol]
      Ind20,r                     -10.98155021 [mEh]      -6.89102679 [kcal/mol]     -28.83205611 [kJ/mol]
      Ind22                        -1.74507956 [mEh]      -1.09505395 [kcal/mol]      -4.58170575 [kJ/mol]
      Exch-Ind20,r                  4.99139944 [mEh]       3.13215043 [kcal/mol]      13.10491742 [kJ/mol]
      Exch-Ind22                    0.79318393 [mEh]       0.49773043 [kcal/mol]       2.08250411 [kJ/mol]
      delta HF,r (2)               -3.69933547 [mEh]      -2.32136806 [kcal/mol]      -9.71260395 [kJ/mol]

    Dispersion                     -8.59744894 [mEh]      -5.39498066 [kcal/mol]     -22.57259909 [kJ/mol]
      Disp20                       -8.66853857 [mEh]      -5.43959008 [kcal/mol]     -22.75924489 [kJ/mol]
      Disp21                        0.63127924 [mEh]       0.39613370 [kcal/mol]       1.65742342 [kJ/mol]
      Disp22 (SDQ)                 -0.42198518 [mEh]      -0.26479970 [kcal/mol]      -1.10792193 [kJ/mol]
      Disp22 (T)                   -1.39692655 [mEh]      -0.87658465 [kcal/mol]      -3.66763016 [kJ/mol]
      Est. Disp22 (T)              -1.55505812 [mEh]      -0.97581370 [kcal/mol]      -4.08280452 [kJ/mol]
      Exch-Disp20                   1.41685368 [mEh]       0.88908911 [kcal/mol]       3.71994884 [kJ/mol]

  Total HF                        -19.32272702 [mEh]     -12.12519426 [kcal/mol]     -50.73181280 [kJ/mol]
  Total SAPT0                     -26.57441191 [mEh]     -16.67569523 [kcal/mol]     -69.77110885 [kJ/mol]
  Total SAPT2                     -21.71605467 [mEh]     -13.62703004 [kcal/mol]     -57.01549367 [kJ/mol]
  Total SAPT2+                    -23.06181872 [mEh]     -14.47150973 [kcal/mol]     -60.54879670 [kJ/mol]

  Special recipe for scaled SAPT0 (see Manual):
    Electrostatics sSAPT0         -30.70934255 [mEh]     -19.27040339 [kcal/mol]     -80.62736776 [kJ/mol]
    Exchange sSAPT0                21.07610178 [mEh]      13.22545354 [kcal/mol]      55.33529761 [kJ/mol]
    Induction sSAPT0               -9.57264216 [mEh]      -6.00692364 [kcal/mol]     -25.13296853 [kJ/mol]
    Dispersion sSAPT0              -7.21851764 [mEh]      -4.52968821 [kcal/mol]     -18.95221546 [kJ/mol]
  Total sSAPT0                    -26.42440057 [mEh]     -16.58156170 [kcal/mol]     -69.37725414 [kJ/mol]
  --------------------------------------------------------------------------------------------------------

*** Psi4 exiting successfully. Buy a developer a beer!
