                               Psi4 1.3.2 release

  ==> Input File <==

--------------------------------------------------------------------------
#psi4
#
memory 32 gb

molecule  {
0 1
  C        2.0083120    -0.3372920     0.0000040
  H        3.1030340    -0.4288200    -0.0000030
  O        1.2864570    -1.3299810     0.0000000
  N        1.5810970     0.9343630     0.0000010
  H        0.5827550     1.1459700     0.0000010
  H        2.3955457     1.6588981    -0.0000030
--
0 1
  C       -1.8649343     0.3175111     0.0000010
  H       -2.9596563     0.4090391    -0.0000010
  O       -1.1430793     1.3102001     0.0000000
  N       -1.4377193    -0.9541439     0.0000000
  H       -0.4393773    -1.1657509     0.0000000
  H       -2.1087903    -1.6984599    -0.0000010
units angstrom
no_reorient  #important for SAPT in psi4, default
symmetry c1  #important for SAPT in psi4, default
}

set {
basis aug-cc-pVDZ
scf_type DF
freeze_core True
}
energy('sapt2+')
--------------------------------------------------------------------------

  //              Dimer HF             //
    Molecular point group: c1
  Charge       = 0
  Multiplicity = 1
  Basis Set: AUG-CC-PVDZ
    Blend: AUG-CC-PVDZ
  Basis Set: (AUG-CC-PVDZ AUX)
    Blend: AUG-CC-PVDZ-JKFIT
  @DF-RHF Final Energy:  -337.93295647312209
    Total Energy =                       -337.9329564731220898
  //            Monomer A HF           //
    Molecular point group: c1
  Multiplicity = 1
  Basis Set: AUG-CC-PVDZ
    Blend: AUG-CC-PVDZ
  Basis Set: (AUG-CC-PVDZ AUX)
    Blend: AUG-CC-PVDZ-JKFIT
  @DF-RHF Final Energy:  -168.95301484343693
    Total Energy =                       -168.9530148434369323
  //            Monomer B HF           //
    Molecular point group: c1

    Geometry (in Angstrom), charge = 0, multiplicity = 1:

       Center              X                  Y                   Z               Mass
    ------------   -----------------  -----------------  -----------------  -----------------
      Gh(C)           1.935018363936    -0.327180147978     0.000003256485    12.000000000000
      Gh(H)           3.029740363936    -0.418708147978    -0.000003743515     1.007825032230
      Gh(O)           1.213163363936    -1.319869147978    -0.000000743515    15.994914619570
      Gh(N)           1.507803363936     0.944474852022     0.000000256485    14.003074004430
      Gh(H)           0.509461363936     1.156081852022     0.000000256485     1.007825032230
      Gh(H)           2.322252063936     1.669009952022    -0.000003743515     1.007825032230
         C           -1.938227936064     0.327622952022     0.000000256485    12.000000000000
         H           -3.032949936064     0.419150952022    -0.000001743515     1.007825032230
         O           -1.216372936064     1.320311952022    -0.000000743515    15.994914619570
         N           -1.511012936064    -0.944032047978    -0.000000743515    14.003074004430
         H           -0.512670936064    -1.155639047978    -0.000000743515     1.007825032230
         H           -2.182083936064    -1.688348047978    -0.000001743515     1.007825032230

  Charge       = 0
  Multiplicity = 1
  Basis Set: AUG-CC-PVDZ
    Blend: AUG-CC-PVDZ
  Basis Set: (AUG-CC-PVDZ AUX)
    Blend: AUG-CC-PVDZ-JKFIT

    Orbital Energies [Eh]
    ---------------------

    Doubly Occupied:

       1A    -20.537557     2A    -15.609703     3A    -11.366142
       4A     -1.381715     5A     -1.229967     6A     -0.856339
       7A     -0.757225     8A     -0.678136     9A     -0.604216
      10A     -0.571700    11A     -0.434379    12A     -0.420955

  @DF-RHF Final Energy:  -168.96254250278568

   => Energetics <=

    Nuclear Repulsion Energy =             71.1611145121232624
    One-Electron Energy =                -371.3512450525284976
    Two-Electron Energy =                 131.2275880376195403
    Total Energy =                       -168.9625425027856807

  Dipole Moment: [D]
     X:    -1.5794      Y:    -4.1807      Z:    -0.0000     Total:     4.4691

    SAPT Results
  --------------------------------------------------------------------------------------------------------
    Electrostatics                -49.90701966 [mEh]     -31.31712764 [kcal/mol]    -131.03086205 [kJ/mol]
      Elst10,r                    -50.91097261 [mEh]     -31.94711763 [kcal/mol]    -133.66674016 [kJ/mol]
      Elst12,r                      1.00395295 [mEh]       0.62998999 [kcal/mol]       2.63587811 [kJ/mol]

    Exchange                       64.94471296 [mEh]      40.75342265 [kcal/mol]     170.51232038 [kJ/mol]
      Exch10                       56.09322933 [mEh]      35.19903282 [kcal/mol]     147.27275332 [kJ/mol]
      Exch10(S^2)                  55.11240425 [mEh]      34.58355579 [kcal/mol]     144.69759741 [kJ/mol]
      Exch11(S^2)                  -0.27635144 [mEh]      -0.17341315 [kcal/mol]      -0.72556062 [kJ/mol]
      Exch12(S^2)                   9.12783507 [mEh]       5.72780298 [kcal/mol]      23.96512768 [kJ/mol]

    Induction                     -24.61320799 [mEh]     -15.44502119 [kcal/mol]     -64.62196867 [kJ/mol]
      Ind20,r                     -27.12295341 [mEh]     -17.01991022 [kcal/mol]     -71.21130438 [kJ/mol]
      Ind22                        -4.41375973 [mEh]      -2.76967605 [kcal/mol]     -11.58832459 [kJ/mol]
      Exch-Ind20,r                 14.63720862 [mEh]       9.18498708 [kcal/mol]      38.42998594 [kJ/mol]
      Exch-Ind22                    2.38193537 [mEh]       1.49468701 [kcal/mol]       6.25377045 [kJ/mol]
      delta HF,r (2)              -10.09563883 [mEh]      -6.33510901 [kcal/mol]     -26.50609610 [kJ/mol]

    Dispersion                    -14.64710680 [mEh]      -9.19119828 [kcal/mol]     -38.45597360 [kJ/mol]
      Disp20                      -15.97158237 [mEh]     -10.02231925 [kcal/mol]     -41.93338374 [kJ/mol]
      Disp21                        1.50685899 [mEh]       0.94556829 [kcal/mol]       3.95625773 [kJ/mol]
      Disp22 (SDQ)                 -0.76522835 [mEh]      -0.48018804 [kcal/mol]      -2.00910676 [kJ/mol]
      Disp22 (T)                   -2.47727600 [mEh]      -1.55451416 [kcal/mol]      -6.50408724 [kJ/mol]
      Est. Disp22 (T)              -2.70160090 [mEh]      -1.69528016 [kcal/mol]      -7.09305218 [kJ/mol]
      Exch-Disp20                   3.28444583 [mEh]       2.06102088 [kcal/mol]       8.62331135 [kJ/mol]

  Total HF                        -17.39912690 [mEh]     -10.91811696 [kcal/mol]     -45.68140138 [kJ/mol]
  Total SAPT0                     -30.08626344 [mEh]     -18.87941534 [kcal/mol]     -78.99147377 [kJ/mol]
  Total SAPT2                     -22.26265122 [mEh]     -13.97002455 [kcal/mol]     -58.45058274 [kJ/mol]
  Total SAPT2+                    -24.22262149 [mEh]     -15.19992446 [kcal/mol]     -63.59648395 [kJ/mol]

  Special recipe for scaled SAPT0 (see Manual):
    Electrostatics sSAPT0         -50.91097261 [mEh]     -31.94711763 [kcal/mol]    -133.66674016 [kJ/mol]
    Exchange sSAPT0                56.09322933 [mEh]      35.19903282 [kcal/mol]     147.27275332 [kJ/mol]
    Induction sSAPT0              -21.78590620 [mEh]     -13.67086254 [kcal/mol]     -57.19888885 [kJ/mol]
    Dispersion sSAPT0             -12.50863922 [mEh]      -7.84928961 [kcal/mol]     -32.84142774 [kJ/mol]
  Total sSAPT0                    -29.11228870 [mEh]     -18.26823696 [kcal/mol]     -76.43430344 [kJ/mol]
  --------------------------------------------------------------------------------------------------------

*** Psi4 exiting successfully. Buy a developer a beer!
