                               Psi4 1.3.2 release

  ==> Input File <==

--------------------------------------------------------------------------
#psi4
#
memory 32 gb

molecule  {
0 1
  C       -1.9644470     0.1609890    -0.0000020
  H       -3.0589320     0.1627090    -0.0000040
  O       -1.3160380     1.1929960    -0.0000020
  O       -1.4968300    -1.0660630     0.0000020
  H       -0.4778920    -1.0649310     0.0000090
--
0 1
  C        1.4440165    -0.1615764    -0.0000031
  H        2.5258325    -0.2838014    -0.0000051
  N        0.6262255    -1.1589434    -0.0000011
  H        1.1368205    -2.0324484    -0.0000011
  N        1.0291665     1.1152476     0.0000019
  H        0.0331495     1.3137806     0.0000009
  H        1.6960865     1.8599236     0.0000039
units angstrom
no_reorient  #important for SAPT in psi4, default
symmetry c1  #important for SAPT in psi4, default
}

set {
basis aug-cc-pVDZ
scf_type DF
freeze_core True
}
energy('sapt2+')
--------------------------------------------------------------------------

  //              Dimer HF             //
    Molecular point group: c1
  Charge       = 0
  Multiplicity = 1
  Basis Set: AUG-CC-PVDZ
    Blend: AUG-CC-PVDZ
  Basis Set: (AUG-CC-PVDZ AUX)
    Blend: AUG-CC-PVDZ-JKFIT
  @DF-RHF Final Energy:  -337.85613949250427
    Total Energy =                       -337.8561394925042691
  //            Monomer A HF           //
    Molecular point group: c1
  Multiplicity = 1
  Basis Set: AUG-CC-PVDZ
    Blend: AUG-CC-PVDZ
  Basis Set: (AUG-CC-PVDZ AUX)
    Blend: AUG-CC-PVDZ-JKFIT
  @DF-RHF Final Energy:  -188.79292409618395
    Total Energy =                       -188.7929240961839525
  //            Monomer B HF           //
    Molecular point group: c1

    Geometry (in Angstrom), charge = 0, multiplicity = 1:

       Center              X                  Y                   Z               Mass
    ------------   -----------------  -----------------  -----------------  -----------------
      Gh(C)          -1.673623582609     0.145815789763    -0.000001485030    12.000000000000
      Gh(H)          -2.768108582609     0.147535789763    -0.000003485030     1.007825032230
      Gh(O)          -1.025214582609     1.177822789763    -0.000001485030    15.994914619570
      Gh(O)          -1.206006582609    -1.081236210237     0.000002514970    15.994914619570
      Gh(H)          -0.187068582609    -1.080104210237     0.000009514970     1.007825032230
         C            1.734839917391    -0.176749610237    -0.000002585030    12.000000000000
         H            2.816655917391    -0.298974610237    -0.000004585030     1.007825032230
         N            0.917048917391    -1.174116610237    -0.000000585030    14.003074004430
         H            1.427643917391    -2.047621610237    -0.000000585030     1.007825032230
         N            1.319989917391     1.100074389763     0.000002414970    14.003074004430
         H            0.323972917391     1.298607389763     0.000001414970     1.007825032230
         H            1.986909917391     1.844750389763     0.000004414970     1.007825032230

  Charge       = 0
  Multiplicity = 1
  Basis Set: AUG-CC-PVDZ
    Blend: AUG-CC-PVDZ
  Basis Set: (AUG-CC-PVDZ AUX)
    Blend: AUG-CC-PVDZ-JKFIT

    Orbital Energies [Eh]
    ---------------------

    Doubly Occupied:

       1A    -15.587941     2A    -15.527430     3A    -11.322156
       4A     -1.263811     5A     -1.138674     6A     -0.831975
       7A     -0.750070     8A     -0.640923     9A     -0.618651
      10A     -0.530005    11A     -0.417155    12A     -0.357606

  @DF-RHF Final Energy:  -149.10957199416805

   => Energetics <=

    Nuclear Repulsion Energy =             72.3341927987139997
    One-Electron Energy =                -344.9147358340012488
    Two-Electron Energy =                 123.4709710411191992
    Total Energy =                       -149.1095719941680500

  Dipole Moment: [D]
     X:     2.3266      Y:     2.2574      Z:    -0.0000     Total:     3.2417

    SAPT Results
  --------------------------------------------------------------------------------------------------------
    Electrostatics               -157.65953951 [mEh]     -98.93285467 [kcal/mol]    -413.93506395 [kJ/mol]
      Elst10,r                   -155.72728713 [mEh]     -97.72034800 [kcal/mol]    -408.86193603 [kJ/mol]
      Elst12,r                     -1.93225238 [mEh]      -1.21250667 [kcal/mol]      -5.07312792 [kJ/mol]

    Exchange                      360.66775339 [mEh]     226.32243214 [kcal/mol]     946.93305608 [kJ/mol]
      Exch10                      342.61440936 [mEh]     214.99378773 [kcal/mol]     899.53400785 [kJ/mol]
      Exch10(S^2)                 309.54342602 [mEh]     194.24143237 [kcal/mol]     812.70615305 [kJ/mol]
      Exch11(S^2)                  -1.07394361 [mEh]      -0.67390979 [kcal/mol]      -2.81963855 [kJ/mol]
      Exch12(S^2)                  19.12728764 [mEh]      12.00255420 [kcal/mol]      50.21868677 [kJ/mol]

    Induction                    -152.07575645 [mEh]     -95.42897791 [kcal/mol]    -399.27484355 [kJ/mol]
      Ind20,r                    -197.74997408 [mEh]    -124.08998218 [kcal/mol]    -519.19248542 [kJ/mol]
      Ind22                       -23.65948266 [mEh]     -14.84654951 [kcal/mol]     -62.11796316 [kJ/mol]
      Exch-Ind20,r                101.25296376 [mEh]      63.53719400 [kcal/mol]     265.83961971 [kJ/mol]
      Exch-Ind22                   12.11425059 [mEh]       7.60180701 [kcal/mol]      31.80596054 [kJ/mol]
      delta HF,r (2)              -44.03351406 [mEh]     -27.63144723 [kcal/mol]    -115.60997523 [kJ/mol]

    Dispersion                    -44.76205293 [mEh]     -28.08861228 [kcal/mol]    -117.52275378 [kJ/mol]
      Disp20                      -55.37023914 [mEh]     -34.74534963 [kcal/mol]    -145.37454285 [kJ/mol]
      Disp21                        9.03617474 [mEh]       5.67028525 [kcal/mol]      23.72447350 [kJ/mol]
      Disp22 (SDQ)                 -2.66417601 [mEh]      -1.67179568 [kcal/mol]      -6.99479314 [kJ/mol]
      Disp22 (T)                   -7.68970090 [mEh]      -4.82536017 [kcal/mol]     -20.18930693 [kJ/mol]
      Est. Disp22 (T)              -8.14495716 [mEh]      -5.11103778 [kcal/mol]     -21.38458208 [kJ/mol]
      Exch-Disp20                  12.38114464 [mEh]       7.76928556 [kcal/mol]      32.50669079 [kJ/mol]

  Total HF                         46.35659785 [mEh]      29.08920432 [kcal/mol]     121.70923088 [kJ/mol]
  Total SAPT0                       3.36750335 [mEh]       2.11314025 [kcal/mol]       8.84137882 [kJ/mol]
  Total SAPT2                       7.94336293 [mEh]       4.98453549 [kcal/mol]      20.85529651 [kJ/mol]
  Total SAPT2+                      6.17040450 [mEh]       3.87198728 [kcal/mol]      16.20039479 [kJ/mol]

  Special recipe for scaled SAPT0 (see Manual):
    Electrostatics sSAPT0        -155.72728713 [mEh]     -97.72034800 [kcal/mol]    -408.86193603 [kJ/mol]
    Exchange sSAPT0               342.61440936 [mEh]     214.99378773 [kcal/mol]     899.53400785 [kJ/mol]
    Induction sSAPT0             -104.48686315 [mEh]     -65.56649651 [kcal/mol]    -274.33022140 [kJ/mol]
    Dispersion sSAPT0             -38.58169973 [mEh]     -24.21038209 [kcal/mol]    -101.29623868 [kJ/mol]
  Total sSAPT0                     43.81855936 [mEh]      27.49656112 [kcal/mol]     115.04561174 [kJ/mol]
  --------------------------------------------------------------------------------------------------------

*** Psi4 exiting successfully. Buy a developer a beer!
