                               Psi4 1.3.2 release

  ==> Input File <==

--------------------------------------------------------------------------
#psi4
#
memory 32 gb

molecule  {
0 1
  C        0.0000000    -1.3936580     1.0640200
  C        1.2077370    -0.6968160     1.0627950
  C        1.2077370     0.6968160     1.0627950
  C        0.0000000     1.3936580     1.0640200
  C       -1.2077370     0.6968160     1.0627950
  C       -1.2077370    -0.6968160     1.0627950
  H        0.0000000    -2.4753200     1.0692940
  H        2.1443140    -1.2373140     1.0618960
  H        2.1443140     1.2373140     1.0618960
  H        0.0000000     2.4753200     1.0692940
  H       -2.1443140     1.2373140     1.0618960
  H       -2.1443140    -1.2373140     1.0618960
--
0 1
  S        0.0000000     0.0000000    -2.5031074
  H        0.0000000     0.9544370    -1.5670394
  H        0.0000000    -0.9544370    -1.5670394
units angstrom
no_reorient  #important for SAPT in psi4, default
symmetry c1  #important for SAPT in psi4, default
}

set {
basis aug-cc-pVTZ
scf_type DF
freeze_core True
}
energy('sapt2+')
--------------------------------------------------------------------------

  //              Dimer HF             //
    Molecular point group: c1
  Charge       = 0
  Multiplicity = 1
  Basis Set: AUG-CC-PVTZ
    Blend: AUG-CC-PVTZ
  Basis Set: (AUG-CC-PVTZ AUX)
    Blend: AUG-CC-PVTZ-JKFIT
  @DF-RHF Final Energy:  -629.49095795351127
    Total Energy =                       -629.4909579535112698
  //            Monomer A HF           //
    Molecular point group: c1
  Multiplicity = 1
  Basis Set: AUG-CC-PVTZ
    Blend: AUG-CC-PVTZ
  Basis Set: (AUG-CC-PVTZ AUX)
    Blend: AUG-CC-PVTZ-JKFIT
  @DF-RHF Final Energy:  -230.78137799780285
    Total Energy =                       -230.7813779978028492
  //            Monomer B HF           //
    Molecular point group: c1

    Geometry (in Angstrom), charge = 0, multiplicity = 1:

       Center              X                  Y                   Z               Mass
    ------------   -----------------  -----------------  -----------------  -----------------
      Gh(C)           0.000000000000    -1.393658000000     1.065817184865    12.000000000000
      Gh(C)           1.207737000000    -0.696816000000     1.064592184865    12.000000000000
      Gh(C)           1.207737000000     0.696816000000     1.064592184865    12.000000000000
      Gh(C)           0.000000000000     1.393658000000     1.065817184865    12.000000000000
      Gh(C)          -1.207737000000     0.696816000000     1.064592184865    12.000000000000
      Gh(C)          -1.207737000000    -0.696816000000     1.064592184865    12.000000000000
      Gh(H)           0.000000000000    -2.475320000000     1.071091184865     1.007825032230
      Gh(H)           2.144314000000    -1.237314000000     1.063693184865     1.007825032230
      Gh(H)           2.144314000000     1.237314000000     1.063693184865     1.007825032230
      Gh(H)           0.000000000000     2.475320000000     1.071091184865     1.007825032230
      Gh(H)          -2.144314000000     1.237314000000     1.063693184865     1.007825032230
      Gh(H)          -2.144314000000    -1.237314000000     1.063693184865     1.007825032230
         S            0.000000000000     0.000000000000    -2.501310215135    31.972071174400
         H            0.000000000000     0.954437000000    -1.565242215135     1.007825032230
         H            0.000000000000    -0.954437000000    -1.565242215135     1.007825032230

  Charge       = 0
  Multiplicity = 1
  Basis Set: AUG-CC-PVTZ
    Blend: AUG-CC-PVTZ
  Basis Set: (AUG-CC-PVTZ AUX)
    Blend: AUG-CC-PVTZ-JKFIT

    Orbital Energies [Eh]
    ---------------------

    Doubly Occupied:

       1A    -91.967000     2A     -8.969042     3A     -6.650313
       4A     -6.649543     5A     -6.648242     6A     -0.982614
       7A     -0.587470     8A     -0.503585     9A     -0.385509

  @DF-RHF Final Energy:  -398.71374152329355

   => Energetics <=

    Nuclear Repulsion Energy =             12.9440448015702323
    One-Electron Energy =                -576.6289369012467887
    Two-Electron Energy =                 164.9711505763829962
    Total Energy =                       -398.7137415232934927

  Dipole Moment: [D]
     X:     0.0000      Y:     0.0000      Z:     1.0862     Total:     1.0862

    SAPT Results
  --------------------------------------------------------------------------------------------------------
    Electrostatics                 -6.08593035 [mEh]      -3.81897895 [kcal/mol]     -15.97860795 [kJ/mol]
      Elst10,r                     -6.34474341 [mEh]      -3.98138660 [kcal/mol]     -16.65812153 [kJ/mol]
      Elst12,r                      0.25881306 [mEh]       0.16240764 [kcal/mol]       0.67951359 [kJ/mol]

    Exchange                       13.11826087 [mEh]       8.23183298 [kcal/mol]      34.44198917 [kJ/mol]
      Exch10                       12.81550441 [mEh]       8.04185043 [kcal/mol]      33.64710220 [kJ/mol]
      Exch10(S^2)                  12.78298473 [mEh]       8.02144402 [kcal/mol]      33.56172178 [kJ/mol]
      Exch11(S^2)                   0.89164493 [mEh]       0.55951564 [kcal/mol]       2.34101345 [kJ/mol]
      Exch12(S^2)                  -0.58888848 [mEh]      -0.36953310 [kcal/mol]      -1.54612648 [kJ/mol]

    Induction                      -2.34203798 [mEh]      -1.46965102 [kcal/mol]      -6.14901988 [kJ/mol]
      Ind20,r                      -3.97372918 [mEh]      -2.49355271 [kcal/mol]     -10.43302454 [kJ/mol]
      Ind22                        -0.15510770 [mEh]      -0.09733155 [kcal/mol]      -0.40723522 [kJ/mol]
      Exch-Ind20,r                  3.13227899 [mEh]       1.96553474 [kcal/mol]       8.22379737 [kJ/mol]
      Exch-Ind22                    0.12226314 [mEh]       0.07672128 [kcal/mol]       0.32100182 [kJ/mol]
      delta HF,r (2)               -1.46774323 [mEh]      -0.92102278 [kcal/mol]      -3.85355932 [kJ/mol]

    Dispersion                     -9.47881440 [mEh]      -5.94804584 [kcal/mol]     -24.88662378 [kJ/mol]
      Disp20                      -12.00915416 [mEh]      -7.53585801 [kcal/mol]     -31.53002990 [kJ/mol]
      Disp21                        2.58659313 [mEh]       1.62311169 [kcal/mol]       6.79109933 [kJ/mol]
      Disp22 (SDQ)                  0.68023457 [mEh]       0.42685364 [kcal/mol]       1.78595562 [kJ/mol]
      Disp22 (T)                   -2.11059053 [mEh]      -1.32441556 [kcal/mol]      -5.54135469 [kJ/mol]
      Est. Disp22 (T)              -2.31002211 [mEh]      -1.44956076 [kcal/mol]      -6.06496222 [kJ/mol]
      Exch-Disp20                   1.57353417 [mEh]       0.98740760 [kcal/mol]       4.13131339 [kJ/mol]

  Total HF                          4.16156759 [mEh]       2.61142309 [kcal/mol]      10.92619419 [kJ/mol]
  Total SAPT0                      -6.27405240 [mEh]      -3.93702732 [kcal/mol]     -16.47252232 [kJ/mol]
  Total SAPT2                      -5.74532746 [mEh]      -3.60524741 [kcal/mol]     -15.08435516 [kJ/mol]
  Total SAPT2+                     -4.78852187 [mEh]      -3.00484284 [kcal/mol]     -12.57226243 [kJ/mol]

  Special recipe for scaled SAPT0 (see Manual):
    Electrostatics sSAPT0          -6.34474341 [mEh]      -3.98138660 [kcal/mol]     -16.65812153 [kJ/mol]
    Exchange sSAPT0                12.81550441 [mEh]       8.04185043 [kcal/mol]      33.64710220 [kJ/mol]
    Induction sSAPT0               -2.28522717 [mEh]      -1.43400170 [kcal/mol]      -5.99986310 [kJ/mol]
    Dispersion sSAPT0             -10.42358028 [mEh]      -6.54089538 [kcal/mol]     -27.36710626 [kJ/mol]
  Total sSAPT0                     -6.23804644 [mEh]      -3.91443324 [kcal/mol]     -16.37798868 [kJ/mol]
  --------------------------------------------------------------------------------------------------------

*** Psi4 exiting successfully. Buy a developer a beer!
