                               Psi4 1.3.2 release

  ==> Input File <==

--------------------------------------------------------------------------
#psi4
#
memory 32 gb

molecule  {
0 1
  C        0.0000000    -1.3936580     1.0640200
  C        1.2077370    -0.6968160     1.0627950
  C        1.2077370     0.6968160     1.0627950
  C        0.0000000     1.3936580     1.0640200
  C       -1.2077370     0.6968160     1.0627950
  C       -1.2077370    -0.6968160     1.0627950
  H        0.0000000    -2.4753200     1.0692940
  H        2.1443140    -1.2373140     1.0618960
  H        2.1443140     1.2373140     1.0618960
  H        0.0000000     2.4753200     1.0692940
  H       -2.1443140     1.2373140     1.0618960
  H       -2.1443140    -1.2373140     1.0618960
--
0 1
  S        0.0000000    -0.0000000    -3.0662091
  H        0.0000000     0.9544370    -2.1301411
  H        0.0000000    -0.9544370    -2.1301411
units angstrom
no_reorient  #important for SAPT in psi4, default
symmetry c1  #important for SAPT in psi4, default
}

set {
basis aug-cc-pVTZ
scf_type DF
freeze_core True
}
energy('sapt2+')
--------------------------------------------------------------------------

  //              Dimer HF             //
    Molecular point group: c1
  Charge       = 0
  Multiplicity = 1
  Basis Set: AUG-CC-PVTZ
    Blend: AUG-CC-PVTZ
  Basis Set: (AUG-CC-PVTZ AUX)
    Blend: AUG-CC-PVTZ-JKFIT
  @DF-RHF Final Energy:  -629.49554138951396
    Total Energy =                       -629.4955413895139600
  //            Monomer A HF           //
    Molecular point group: c1
  Multiplicity = 1
  Basis Set: AUG-CC-PVTZ
    Blend: AUG-CC-PVTZ
  Basis Set: (AUG-CC-PVTZ AUX)
    Blend: AUG-CC-PVTZ-JKFIT
  @DF-RHF Final Energy:  -230.78131046440879
    Total Energy =                       -230.7813104644088185
  //            Monomer B HF           //
    Molecular point group: c1

    Geometry (in Angstrom), charge = 0, multiplicity = 1:

       Center              X                  Y                   Z               Mass
    ------------   -----------------  -----------------  -----------------  -----------------
      Gh(C)           0.000000000000    -1.393658000000     1.236644156231    12.000000000000
      Gh(C)           1.207737000000    -0.696816000000     1.235419156231    12.000000000000
      Gh(C)           1.207737000000     0.696816000000     1.235419156231    12.000000000000
      Gh(C)           0.000000000000     1.393658000000     1.236644156231    12.000000000000
      Gh(C)          -1.207737000000     0.696816000000     1.235419156231    12.000000000000
      Gh(C)          -1.207737000000    -0.696816000000     1.235419156231    12.000000000000
      Gh(H)           0.000000000000    -2.475320000000     1.241918156231     1.007825032230
      Gh(H)           2.144314000000    -1.237314000000     1.234520156231     1.007825032230
      Gh(H)           2.144314000000     1.237314000000     1.234520156231     1.007825032230
      Gh(H)           0.000000000000     2.475320000000     1.241918156231     1.007825032230
      Gh(H)          -2.144314000000     1.237314000000     1.234520156231     1.007825032230
      Gh(H)          -2.144314000000    -1.237314000000     1.234520156231     1.007825032230
         S            0.000000000000     0.000000000000    -2.893584943769    31.972071174400
         H            0.000000000000     0.954437000000    -1.957516943769     1.007825032230
         H            0.000000000000    -0.954437000000    -1.957516943769     1.007825032230

  Charge       = 0
  Multiplicity = 1
  Basis Set: AUG-CC-PVTZ
    Blend: AUG-CC-PVTZ
  Basis Set: (AUG-CC-PVTZ AUX)
    Blend: AUG-CC-PVTZ-JKFIT

    Orbital Energies [Eh]
    ---------------------

    Doubly Occupied:

       1A    -91.966922     2A     -8.969034     3A     -6.650306
       4A     -6.649540     5A     -6.648234     6A     -0.982632
       7A     -0.587487     8A     -0.503601     9A     -0.385519

  @DF-RHF Final Energy:  -398.71372375939256

   => Energetics <=

    Nuclear Repulsion Energy =             12.9440448015702305
    One-Electron Energy =                -576.6289867132841209
    Two-Electron Energy =                 164.9712181523213133
    Total Energy =                       -398.7137237593925647

  Dipole Moment: [D]
     X:    -0.0000      Y:     0.0000      Z:     1.0861     Total:     1.0861

    SAPT Results
  --------------------------------------------------------------------------------------------------------
    Electrostatics                 -1.97108160 [mEh]      -1.23687238 [kcal/mol]      -5.17507403 [kJ/mol]
      Elst10,r                     -2.19682131 [mEh]      -1.37852618 [kcal/mol]      -5.76775356 [kJ/mol]
      Elst12,r                      0.22573971 [mEh]       0.14165381 [kcal/mol]       0.59267952 [kJ/mol]

    Exchange                        2.34537285 [mEh]       1.47174368 [kcal/mol]       6.15777556 [kJ/mol]
      Exch10                        2.24655788 [mEh]       1.40973635 [kcal/mol]       5.89833690 [kJ/mol]
      Exch10(S^2)                   2.24602351 [mEh]       1.40940103 [kcal/mol]       5.89693392 [kJ/mol]
      Exch11(S^2)                   0.16489845 [mEh]       0.10347534 [kcal/mol]       0.43294082 [kJ/mol]
      Exch12(S^2)                  -0.06608348 [mEh]      -0.04146801 [kcal/mol]      -0.17350216 [kJ/mol]

    Induction                      -0.56560506 [mEh]      -0.35492254 [kcal/mol]      -1.48499589 [kJ/mol]
      Ind20,r                      -0.69610541 [mEh]      -0.43681274 [kcal/mol]      -1.82762449 [kJ/mol]
      Ind22                        -0.02168280 [mEh]      -0.01360616 [kcal/mol]      -0.05692819 [kJ/mol]
      Exch-Ind20,r                  0.41671096 [mEh]       0.26149007 [kcal/mol]       1.09407447 [kJ/mol]
      Exch-Ind22                    0.01298002 [mEh]       0.00814508 [kcal/mol]       0.03407903 [kJ/mol]
      delta HF,r (2)               -0.27750783 [mEh]      -0.17413879 [kcal/mol]      -0.72859671 [kJ/mol]

    Dispersion                     -4.03179924 [mEh]      -2.52999222 [kcal/mol]     -10.58548745 [kJ/mol]
      Disp20                       -4.79175823 [mEh]      -3.00687369 [kcal/mol]     -12.58075950 [kJ/mol]
      Disp21                        1.09235710 [mEh]       0.68546443 [kcal/mol]       2.86798318 [kJ/mol]
      Disp22 (SDQ)                  0.27935934 [mEh]       0.17530063 [kcal/mol]       0.73345786 [kJ/mol]
      Disp22 (T)                   -0.88476780 [mEh]      -0.55520018 [kcal/mol]      -2.32295754 [kJ/mol]
      Est. Disp22 (T)              -0.96155227 [mEh]      -0.60338316 [kcal/mol]      -2.52455513 [kJ/mol]
      Exch-Disp20                   0.34979481 [mEh]       0.21949956 [kcal/mol]       0.91838615 [kJ/mol]

  Total HF                         -0.50716571 [mEh]      -0.31825129 [kcal/mol]      -1.33156340 [kJ/mol]
  Total SAPT0                      -4.94912913 [mEh]      -3.10562542 [kcal/mol]     -12.99393675 [kJ/mol]
  Total SAPT2                      -4.63327724 [mEh]      -2.90742536 [kcal/mol]     -12.16466771 [kJ/mol]
  Total SAPT2+                     -4.22311306 [mEh]      -2.65004345 [kcal/mol]     -11.08778181 [kJ/mol]

  Special recipe for scaled SAPT0 (see Manual):
    Electrostatics sSAPT0          -2.19682131 [mEh]      -1.37852618 [kcal/mol]      -5.76775356 [kJ/mol]
    Exchange sSAPT0                 2.24655788 [mEh]       1.40973635 [kcal/mol]       5.89833690 [kJ/mol]
    Induction sSAPT0               -0.55660478 [mEh]      -0.34927477 [kcal/mol]      -1.46136565 [kJ/mol]
    Dispersion sSAPT0              -4.44171370 [mEh]      -2.78721742 [kcal/mol]     -11.66171770 [kJ/mol]
  Total sSAPT0                     -4.94858191 [mEh]      -3.10528203 [kcal/mol]     -12.99250001 [kJ/mol]
  --------------------------------------------------------------------------------------------------------

*** Psi4 exiting successfully. Buy a developer a beer!
