                               Psi4 1.3.2 release

  ==> Input File <==

--------------------------------------------------------------------------
#psi4
#
memory 32 gb

molecule  {
0 1
  C        0.0000000    -1.3936580     1.0640200
  C        1.2077370    -0.6968160     1.0627950
  C        1.2077370     0.6968160     1.0627950
  C        0.0000000     1.3936580     1.0640200
  C       -1.2077370     0.6968160     1.0627950
  C       -1.2077370    -0.6968160     1.0627950
  H        0.0000000    -2.4753200     1.0692940
  H        2.1443140    -1.2373140     1.0618960
  H        2.1443140     1.2373140     1.0618960
  H        0.0000000     2.4753200     1.0692940
  H       -2.1443140     1.2373140     1.0618960
  H       -2.1443140    -1.2373140     1.0618960
--
0 1
  S        0.0000000     0.0000000    -2.3154069
  H        0.0000000     0.9544370    -1.3793389
  H        0.0000000    -0.9544370    -1.3793389
units angstrom
no_reorient  #important for SAPT in psi4, default
symmetry c1  #important for SAPT in psi4, default
}

set {
basis aug-cc-pVTZ
scf_type DF
freeze_core True
}
energy('sapt2+')
--------------------------------------------------------------------------

  //              Dimer HF             //
    Molecular point group: c1
  Charge       = 0
  Multiplicity = 1
  Basis Set: AUG-CC-PVTZ
    Blend: AUG-CC-PVTZ
  Basis Set: (AUG-CC-PVTZ AUX)
    Blend: AUG-CC-PVTZ-JKFIT
  @DF-RHF Final Energy:  -629.48627893911862
    Total Energy =                       -629.4862789391186197
  //            Monomer A HF           //
    Molecular point group: c1
  Multiplicity = 1
  Basis Set: AUG-CC-PVTZ
    Blend: AUG-CC-PVTZ
  Basis Set: (AUG-CC-PVTZ AUX)
    Blend: AUG-CC-PVTZ-JKFIT
  @DF-RHF Final Energy:  -230.78142217029233
    Total Energy =                       -230.7814221702923305
  //            Monomer B HF           //
    Molecular point group: c1

    Geometry (in Angstrom), charge = 0, multiplicity = 1:

       Center              X                  Y                   Z               Mass
    ------------   -----------------  -----------------  -----------------  -----------------
      Gh(C)           0.000000000000    -1.393658000000     1.008874881301    12.000000000000
      Gh(C)           1.207737000000    -0.696816000000     1.007649881301    12.000000000000
      Gh(C)           1.207737000000     0.696816000000     1.007649881301    12.000000000000
      Gh(C)           0.000000000000     1.393658000000     1.008874881301    12.000000000000
      Gh(C)          -1.207737000000     0.696816000000     1.007649881301    12.000000000000
      Gh(C)          -1.207737000000    -0.696816000000     1.007649881301    12.000000000000
      Gh(H)           0.000000000000    -2.475320000000     1.014148881301     1.007825032230
      Gh(H)           2.144314000000    -1.237314000000     1.006750881301     1.007825032230
      Gh(H)           2.144314000000     1.237314000000     1.006750881301     1.007825032230
      Gh(H)           0.000000000000     2.475320000000     1.014148881301     1.007825032230
      Gh(H)          -2.144314000000     1.237314000000     1.006750881301     1.007825032230
      Gh(H)          -2.144314000000    -1.237314000000     1.006750881301     1.007825032230
         S            0.000000000000     0.000000000000    -2.370552018699    31.972071174400
         H            0.000000000000     0.954437000000    -1.434484018699     1.007825032230
         H            0.000000000000    -0.954437000000    -1.434484018699     1.007825032230

  Charge       = 0
  Multiplicity = 1
  Basis Set: AUG-CC-PVTZ
    Blend: AUG-CC-PVTZ
  Basis Set: (AUG-CC-PVTZ AUX)
    Blend: AUG-CC-PVTZ-JKFIT

    Orbital Energies [Eh]
    ---------------------

    Doubly Occupied:

       1A    -91.967042     2A     -8.969046     3A     -6.650317
       4A     -6.649547     5A     -6.648248     6A     -0.982606
       7A     -0.587463     8A     -0.503577     9A     -0.385506

  @DF-RHF Final Energy:  -398.71375038161023

   => Energetics <=

    Nuclear Repulsion Energy =             12.9440448015702323
    One-Electron Energy =                -576.6288857580647118
    Two-Electron Energy =                 164.9710905748842151
    Total Energy =                       -398.7137503816102253

  Dipole Moment: [D]
     X:     0.0000      Y:     0.0000      Z:     1.0862     Total:     1.0862

    SAPT Results
  --------------------------------------------------------------------------------------------------------
    Electrostatics                 -9.57217358 [mEh]      -6.00662961 [kcal/mol]     -25.13173828 [kJ/mol]
      Elst10,r                     -9.83132978 [mEh]      -6.16925258 [kcal/mol]     -25.81215278 [kJ/mol]
      Elst12,r                      0.25915620 [mEh]       0.16262297 [kcal/mol]       0.68041450 [kJ/mol]

    Exchange                       22.89112048 [mEh]      14.36439497 [kcal/mol]      60.10062855 [kJ/mol]
      Exch10                       22.51218820 [mEh]      14.12661137 [kcal/mol]      59.10574199 [kJ/mol]
      Exch10(S^2)                  22.40370449 [mEh]      14.05853682 [kcal/mol]      58.82091804 [kJ/mol]
      Exch11(S^2)                   1.50157407 [mEh]       0.94225196 [kcal/mol]       3.94238219 [kJ/mol]
      Exch12(S^2)                  -1.12264179 [mEh]      -0.70446836 [kcal/mol]      -2.94749562 [kJ/mol]

    Induction                      -3.83671936 [mEh]      -2.40757775 [kcal/mol]     -10.07330529 [kJ/mol]
      Ind20,r                      -7.38995142 [mEh]      -4.63726453 [kcal/mol]     -19.40231479 [kJ/mol]
      Ind22                        -0.27785883 [mEh]      -0.17435905 [kcal/mol]      -0.72951824 [kJ/mol]
      Exch-Ind20,r                  6.07414522 [mEh]       3.81158367 [kcal/mol]      15.94766609 [kJ/mol]
      Exch-Ind22                    0.22838511 [mEh]       0.14331382 [kcal/mol]       0.59962502 [kJ/mol]
      delta HF,r (2)               -2.47143944 [mEh]      -1.55085166 [kcal/mol]      -6.48876336 [kJ/mol]

    Dispersion                    -12.70632654 [mEh]      -7.97334028 [kcal/mol]     -33.36045574 [kJ/mol]
      Disp20                      -16.55972316 [mEh]     -10.39138317 [kcal/mol]     -43.47754716 [kJ/mol]
      Disp21                        3.54759872 [mEh]       2.22615180 [kcal/mol]       9.31421915 [kJ/mol]
      Disp22 (SDQ)                  0.90599177 [mEh]       0.56851842 [kcal/mol]       2.37868105 [kJ/mol]
      Disp22 (T)                   -2.84863401 [mEh]      -1.78754483 [kcal/mol]      -7.47908757 [kJ/mol]
      Est. Disp22 (T)              -3.12596540 [mEh]      -1.96157290 [kcal/mol]      -8.20722103 [kJ/mol]
      Exch-Disp20                   2.52577154 [mEh]       1.58494557 [kcal/mol]       6.63141225 [kJ/mol]

  Total HF                          8.89361278 [mEh]       5.58082628 [kcal/mol]      23.35017715 [kJ/mol]
  Total SAPT0                      -5.14033884 [mEh]      -3.22561132 [kcal/mol]     -13.49595777 [kJ/mol]
  Total SAPT2                      -4.55172408 [mEh]      -2.85624998 [kcal/mol]     -11.95054993 [kJ/mol]
  Total SAPT2+                     -3.22409900 [mEh]      -2.02315267 [kcal/mol]      -8.46487075 [kJ/mol]

  Special recipe for scaled SAPT0 (see Manual):
    Electrostatics sSAPT0          -9.83132978 [mEh]      -6.16925258 [kcal/mol]     -25.81215278 [kJ/mol]
    Exchange sSAPT0                22.51218820 [mEh]      14.12661137 [kcal/mol]      59.10574199 [kJ/mol]
    Induction sSAPT0               -3.69858061 [mEh]      -2.32089437 [kcal/mol]      -9.71062205 [kJ/mol]
    Dispersion sSAPT0             -13.99708263 [mEh]      -8.78330196 [kcal/mol]     -36.74933539 [kJ/mol]
  Total sSAPT0                     -5.01480482 [mEh]      -3.14683753 [kcal/mol]     -13.16636823 [kJ/mol]
  --------------------------------------------------------------------------------------------------------

*** Psi4 exiting successfully. Buy a developer a beer!
