                               Psi4 1.3.2 release

  ==> Input File <==

--------------------------------------------------------------------------
#psi4
#
memory 32 gb

molecule  {
0 1
  C        0.0000000    -1.3936580     1.0640200
  C        1.2077370    -0.6968160     1.0627950
  C        1.2077370     0.6968160     1.0627950
  C        0.0000000     1.3936580     1.0640200
  C       -1.2077370     0.6968160     1.0627950
  C       -1.2077370    -0.6968160     1.0627950
  H        0.0000000    -2.4753200     1.0692940
  H        2.1443140    -1.2373140     1.0618960
  H        2.1443140     1.2373140     1.0618960
  H        0.0000000     2.4753200     1.0692940
  H       -2.1443140     1.2373140     1.0618960
  H       -2.1443140    -1.2373140     1.0618960
--
0 1
  S        0.0000000     0.0000000    -2.6908080
  H        0.0000000     0.9544370    -1.7547400
  H        0.0000000    -0.9544370    -1.7547400
units angstrom
no_reorient  #important for SAPT in psi4, default
symmetry c1  #important for SAPT in psi4, default
}

set {
basis aug-cc-pVTZ
scf_type DF
freeze_core True
}
energy('sapt2+')
--------------------------------------------------------------------------

  //              Dimer HF             //
    Molecular point group: c1
  Charge       = 0
  Multiplicity = 1
  Basis Set: AUG-CC-PVTZ
    Blend: AUG-CC-PVTZ
  Basis Set: (AUG-CC-PVTZ AUX)
    Blend: AUG-CC-PVTZ-JKFIT
  @DF-RHF Final Energy:  -629.49351720026561
    Total Energy =                       -629.4935172002656145
  //            Monomer A HF           //
    Molecular point group: c1
  Multiplicity = 1
  Basis Set: AUG-CC-PVTZ
    Blend: AUG-CC-PVTZ
  Basis Set: (AUG-CC-PVTZ AUX)
    Blend: AUG-CC-PVTZ-JKFIT
  @DF-RHF Final Energy:  -230.78134239676407
    Total Energy =                       -230.7813423967640460
  //            Monomer B HF           //
    Molecular point group: c1

    Geometry (in Angstrom), charge = 0, multiplicity = 1:

       Center              X                  Y                   Z               Mass
    ------------   -----------------  -----------------  -----------------  -----------------
      Gh(C)           0.000000000000    -1.393658000000     1.122759518766    12.000000000000
      Gh(C)           1.207737000000    -0.696816000000     1.121534518766    12.000000000000
      Gh(C)           1.207737000000     0.696816000000     1.121534518766    12.000000000000
      Gh(C)           0.000000000000     1.393658000000     1.122759518766    12.000000000000
      Gh(C)          -1.207737000000     0.696816000000     1.121534518766    12.000000000000
      Gh(C)          -1.207737000000    -0.696816000000     1.121534518766    12.000000000000
      Gh(H)           0.000000000000    -2.475320000000     1.128033518766     1.007825032230
      Gh(H)           2.144314000000    -1.237314000000     1.120635518766     1.007825032230
      Gh(H)           2.144314000000     1.237314000000     1.120635518766     1.007825032230
      Gh(H)           0.000000000000     2.475320000000     1.128033518766     1.007825032230
      Gh(H)          -2.144314000000     1.237314000000     1.120635518766     1.007825032230
      Gh(H)          -2.144314000000    -1.237314000000     1.120635518766     1.007825032230
         S            0.000000000000     0.000000000000    -2.632068481234    31.972071174400
         H            0.000000000000     0.954437000000    -1.696000481234     1.007825032230
         H            0.000000000000    -0.954437000000    -1.696000481234     1.007825032230

  Charge       = 0
  Multiplicity = 1
  Basis Set: AUG-CC-PVTZ
    Blend: AUG-CC-PVTZ
  Basis Set: (AUG-CC-PVTZ AUX)
    Blend: AUG-CC-PVTZ-JKFIT

    Orbital Energies [Eh]
    ---------------------

    Doubly Occupied:

       1A    -91.966968     2A     -8.969038     3A     -6.650310
       4A     -6.649541     5A     -6.648239     6A     -0.982621
       7A     -0.587477     8A     -0.503591     9A     -0.385512

  @DF-RHF Final Energy:  -398.71373440993051

   => Energetics <=

    Nuclear Repulsion Energy =             12.9440448015702270
    One-Electron Energy =                -576.6289635700361487
    Two-Electron Energy =                 164.9711843585353677
    Total Energy =                       -398.7137344099305096

  Dipole Moment: [D]
     X:    -0.0000      Y:     0.0000      Z:     1.0862     Total:     1.0862

    SAPT Results
  --------------------------------------------------------------------------------------------------------
    Electrostatics                 -4.00048512 [mEh]      -2.51034231 [kcal/mol]     -10.50327224 [kJ/mol]
      Elst10,r                     -4.25298613 [mEh]      -2.66878909 [kcal/mol]     -11.16621356 [kJ/mol]
      Elst12,r                      0.25250101 [mEh]       0.15844678 [kcal/mol]       0.66294131 [kJ/mol]

    Exchange                        7.44833307 [mEh]       4.67389956 [kcal/mol]      19.55559577 [kJ/mol]
      Exch10                        7.22928308 [mEh]       4.53644362 [kcal/mol]      18.98048010 [kJ/mol]
      Exch10(S^2)                   7.22011782 [mEh]       4.53069234 [kcal/mol]      18.95641673 [kJ/mol]
      Exch11(S^2)                   0.51681505 [mEh]       0.32430634 [kcal/mol]       1.35689774 [kJ/mol]
      Exch12(S^2)                  -0.29776506 [mEh]      -0.18685040 [kcal/mol]      -0.78178207 [kJ/mol]

    Induction                      -1.43864254 [mEh]      -0.90276182 [kcal/mol]      -3.77715546 [kJ/mol]
      Ind20,r                      -2.16874087 [mEh]      -1.36090544 [kcal/mol]      -5.69402836 [kJ/mol]
      Ind22                        -0.08435561 [mEh]      -0.05293394 [kcal/mol]      -0.22147561 [kJ/mol]
      Exch-Ind20,r                  1.60436518 [mEh]       1.00675435 [kcal/mol]       4.21226019 [kJ/mol]
      Exch-Ind22                    0.06240358 [mEh]       0.03915884 [kcal/mol]       0.16384058 [kJ/mol]
      delta HF,r (2)               -0.85231482 [mEh]      -0.53483563 [kcal/mol]      -2.23775226 [kJ/mol]

    Dispersion                     -7.09790724 [mEh]      -4.45400404 [kcal/mol]     -18.63555290 [kJ/mol]
      Disp20                       -8.76819939 [mEh]      -5.50212819 [kcal/mol]     -23.02090434 [kJ/mol]
      Disp21                        1.91330082 [mEh]       1.20061439 [kcal/mol]       5.02337062 [kJ/mol]
      Disp22 (SDQ)                  0.50685765 [mEh]       0.31805798 [kcal/mol]       1.33075458 [kJ/mol]
      Disp22 (T)                   -1.57533727 [mEh]      -0.98853906 [kcal/mol]      -4.13604743 [kJ/mol]
      Est. Disp22 (T)              -1.71469237 [mEh]      -1.07598571 [kcal/mol]      -4.50192421 [kJ/mol]
      Exch-Disp20                   0.96482605 [mEh]       0.60543749 [kcal/mol]       2.53315044 [kJ/mol]

  Total HF                          1.55960643 [mEh]       0.97866781 [kcal/mol]       4.09474612 [kJ/mol]
  Total SAPT0                      -6.24376692 [mEh]      -3.91802289 [kcal/mol]     -16.39300778 [kJ/mol]
  Total SAPT2                      -5.79416794 [mEh]      -3.63589528 [kcal/mol]     -15.21258583 [kJ/mol]
  Total SAPT2+                     -5.08870184 [mEh]      -3.19320861 [kcal/mol]     -13.36038484 [kJ/mol]

  Special recipe for scaled SAPT0 (see Manual):
    Electrostatics sSAPT0          -4.25298613 [mEh]      -2.66878909 [kcal/mol]     -11.16621356 [kJ/mol]
    Exchange sSAPT0                 7.22928308 [mEh]       4.53644362 [kcal/mol]      18.98048010 [kJ/mol]
    Induction sSAPT0               -1.41057299 [mEh]      -0.88514791 [kcal/mol]      -3.70345886 [kJ/mol]
    Dispersion sSAPT0              -7.79969441 [mEh]      -4.89438214 [kcal/mol]     -20.47809486 [kJ/mol]
  Total sSAPT0                     -6.23397046 [mEh]      -3.91187552 [kcal/mol]     -16.36728718 [kJ/mol]
  --------------------------------------------------------------------------------------------------------

*** Psi4 exiting successfully. Buy a developer a beer!
