                               Psi4 1.3.2 release

  ==> Input File <==

--------------------------------------------------------------------------
#psi4
#
memory 32 gb

molecule  {
0 1
  C        0.0000000    -1.3936580     1.0640200
  C        1.2077370    -0.6968160     1.0627950
  C        1.2077370     0.6968160     1.0627950
  C        0.0000000     1.3936580     1.0640200
  C       -1.2077370     0.6968160     1.0627950
  C       -1.2077370    -0.6968160     1.0627950
  H        0.0000000    -2.4753200     1.0692940
  H        2.1443140    -1.2373140     1.0618960
  H        2.1443140     1.2373140     1.0618960
  H        0.0000000     2.4753200     1.0692940
  H       -2.1443140     1.2373140     1.0618960
  H       -2.1443140    -1.2373140     1.0618960
--
0 1
  S        0.0000000    -0.0000000    -2.8785086
  H        0.0000000     0.9544370    -1.9424406
  H        0.0000000    -0.9544370    -1.9424406
units angstrom
no_reorient  #important for SAPT in psi4, default
symmetry c1  #important for SAPT in psi4, default
}

set {
basis aug-cc-pVTZ
scf_type DF
freeze_core True
}
energy('sapt2+')
--------------------------------------------------------------------------

  //              Dimer HF             //
    Molecular point group: c1
  Charge       = 0
  Multiplicity = 1
  Basis Set: AUG-CC-PVTZ
    Blend: AUG-CC-PVTZ
  Basis Set: (AUG-CC-PVTZ AUX)
    Blend: AUG-CC-PVTZ-JKFIT
  @DF-RHF Final Energy:  -629.49486818000435
    Total Energy =                       -629.4948681800043460
  //            Monomer A HF           //
    Molecular point group: c1
  Multiplicity = 1
  Basis Set: AUG-CC-PVTZ
    Blend: AUG-CC-PVTZ
  Basis Set: (AUG-CC-PVTZ AUX)
    Blend: AUG-CC-PVTZ-JKFIT
  @DF-RHF Final Energy:  -230.78132105955842
    Total Energy =                       -230.7813210595584223
  //            Monomer B HF           //
    Molecular point group: c1

    Geometry (in Angstrom), charge = 0, multiplicity = 1:

       Center              X                  Y                   Z               Mass
    ------------   -----------------  -----------------  -----------------  -----------------
      Gh(C)           0.000000000000    -1.393658000000     1.179701852667    12.000000000000
      Gh(C)           1.207737000000    -0.696816000000     1.178476852667    12.000000000000
      Gh(C)           1.207737000000     0.696816000000     1.178476852667    12.000000000000
      Gh(C)           0.000000000000     1.393658000000     1.179701852667    12.000000000000
      Gh(C)          -1.207737000000     0.696816000000     1.178476852667    12.000000000000
      Gh(C)          -1.207737000000    -0.696816000000     1.178476852667    12.000000000000
      Gh(H)           0.000000000000    -2.475320000000     1.184975852667     1.007825032230
      Gh(H)           2.144314000000    -1.237314000000     1.177577852667     1.007825032230
      Gh(H)           2.144314000000     1.237314000000     1.177577852667     1.007825032230
      Gh(H)           0.000000000000     2.475320000000     1.184975852667     1.007825032230
      Gh(H)          -2.144314000000     1.237314000000     1.177577852667     1.007825032230
      Gh(H)          -2.144314000000    -1.237314000000     1.177577852667     1.007825032230
         S            0.000000000000     0.000000000000    -2.762826747333    31.972071174400
         H            0.000000000000     0.954437000000    -1.826758747333     1.007825032230
         H            0.000000000000    -0.954437000000    -1.826758747333     1.007825032230

  Charge       = 0
  Multiplicity = 1
  Basis Set: AUG-CC-PVTZ
    Blend: AUG-CC-PVTZ
  Basis Set: (AUG-CC-PVTZ AUX)
    Blend: AUG-CC-PVTZ-JKFIT

    Orbital Energies [Eh]
    ---------------------

    Doubly Occupied:

       1A    -91.966942     2A     -8.969036     3A     -6.650307
       4A     -6.649540     5A     -6.648236     6A     -0.982627
       7A     -0.587483     8A     -0.503597     9A     -0.385515

  @DF-RHF Final Energy:  -398.71372862828929

   => Energetics <=

    Nuclear Repulsion Energy =             12.9440448015702305
    One-Electron Energy =                -576.6289786690110759
    Two-Electron Energy =                 164.9712052391515442
    Total Energy =                       -398.7137286282892319

  Dipole Moment: [D]
     X:     0.0000      Y:     0.0000      Z:     1.0861     Total:     1.0861

    SAPT Results
  --------------------------------------------------------------------------------------------------------
    Electrostatics                 -2.74257527 [mEh]      -1.72099196 [kcal/mol]      -7.20063038 [kJ/mol]
      Elst10,r                     -2.98356402 [mEh]      -1.87221469 [kcal/mol]      -7.83334625 [kJ/mol]
      Elst12,r                      0.24098875 [mEh]       0.15122272 [kcal/mol]       0.63271587 [kJ/mol]

    Exchange                        4.19482164 [mEh]       2.63229032 [kcal/mol]      11.01350270 [kJ/mol]
      Exch10                        4.04483012 [mEh]       2.53816922 [kcal/mol]      10.61970001 [kJ/mol]
      Exch10(S^2)                   4.04245644 [mEh]       2.53667971 [kcal/mol]      10.61346792 [kJ/mol]
      Exch11(S^2)                   0.29403454 [mEh]       0.18450946 [kcal/mol]       0.77198758 [kJ/mol]
      Exch12(S^2)                  -0.14404301 [mEh]      -0.09038836 [kcal/mol]      -0.37818488 [kJ/mol]

    Induction                      -0.89404595 [mEh]      -0.56102231 [kcal/mol]      -2.34731733 [kJ/mol]
      Ind20,r                      -1.21031941 [mEh]      -0.75948689 [kcal/mol]      -3.17769316 [kJ/mol]
      Ind22                        -0.04413886 [mEh]      -0.02769755 [kcal/mol]      -0.11588656 [kJ/mol]
      Exch-Ind20,r                  0.81854041 [mEh]       0.51364186 [kcal/mol]       2.14907754 [kJ/mol]
      Exch-Ind22                    0.02985116 [mEh]       0.01873189 [kcal/mol]       0.07837421 [kJ/mol]
      delta HF,r (2)               -0.48797926 [mEh]      -0.30621161 [kcal/mol]      -1.28118936 [kJ/mol]

    Dispersion                     -5.33621307 [mEh]      -3.34852426 [kcal/mol]     -14.01022549 [kJ/mol]
      Disp20                       -6.45315686 [mEh]      -4.04941706 [kcal/mol]     -16.94276100 [kJ/mol]
      Disp21                        1.43575367 [mEh]       0.90094903 [kcal/mol]       3.76957075 [kJ/mol]
      Disp22 (SDQ)                  0.37637063 [mEh]       0.23617614 [kcal/mol]       0.98816097 [kJ/mol]
      Disp22 (T)                   -1.17527719 [mEh]      -0.73749757 [kcal/mol]      -3.08568985 [kJ/mol]
      Est. Disp22 (T)              -1.27920184 [mEh]      -0.80271127 [kcal/mol]      -3.35854396 [kJ/mol]
      Exch-Disp20                   0.58402132 [mEh]       0.36647891 [kcal/mol]       1.53334775 [kJ/mol]

  Total HF                          0.18150784 [mEh]       0.11389789 [kcal/mol]       0.47654878 [kJ/mol]
  Total SAPT0                      -5.68762770 [mEh]      -3.56904026 [kcal/mol]     -14.93286447 [kJ/mol]
  Total SAPT2                      -5.31093512 [mEh]      -3.33266210 [kcal/mol]     -13.94385824 [kJ/mol]
  Total SAPT2+                     -4.77801265 [mEh]      -2.99824820 [kcal/mol]     -12.54467049 [kJ/mol]

  Special recipe for scaled SAPT0 (see Manual):
    Electrostatics sSAPT0          -2.98356402 [mEh]      -1.87221469 [kcal/mol]      -7.83334625 [kJ/mol]
    Exchange sSAPT0                 4.04483012 [mEh]       2.53816922 [kcal/mol]      10.61970001 [kJ/mol]
    Induction sSAPT0               -0.87831550 [mEh]      -0.55115130 [kcal/mol]      -2.30601703 [kJ/mol]
    Dispersion sSAPT0              -5.86810615 [mEh]      -3.68229220 [kcal/mol]     -15.40671057 [kJ/mol]
  Total sSAPT0                     -5.68515555 [mEh]      -3.56748897 [kcal/mol]     -14.92637384 [kJ/mol]
  --------------------------------------------------------------------------------------------------------

*** Psi4 exiting successfully. Buy a developer a beer!
