                               Psi4 1.3.2 release

  ==> Input File <==

--------------------------------------------------------------------------
#psi4
#
memory 32 gb

molecule  {
0 1
  C       -1.9521150     0.2323370    -0.0000010
  H       -3.0450720     0.2485030     0.0000010
  O       -1.2823360     1.2482650     0.0000000
  O       -1.5045270    -1.0066940    -0.0000010
  H       -0.5061810    -1.0124010    -0.0000010
--
0 1
  C        1.9538260    -0.2466240     0.0000030
  H        3.0365220    -0.4186500    -0.0000010
  O        1.1644370    -1.1897570     0.0000000
  N        1.6089930     1.0465280     0.0000010
  H        0.6235880     1.2978480     0.0000000
  H        2.3192070     1.7534080    -0.0000010
units angstrom
no_reorient  #important for SAPT in psi4, default
symmetry c1  #important for SAPT in psi4, default
}

set {
basis aug-cc-pVTZ
scf_type DF
freeze_core True
}
energy('sapt2+')
--------------------------------------------------------------------------

  //              Dimer HF             //
    Molecular point group: c1
  Charge       = 0
  Multiplicity = 1
  Basis Set: AUG-CC-PVTZ
    Blend: AUG-CC-PVTZ
  Basis Set: (AUG-CC-PVTZ AUX)
    Blend: AUG-CC-PVTZ-JKFIT
  @DF-RHF Final Energy:  -357.86750789140092
    Total Energy =                       -357.8675078914009191
  //            Monomer A HF           //
    Molecular point group: c1
  Multiplicity = 1
  Basis Set: AUG-CC-PVTZ
    Blend: AUG-CC-PVTZ
  Basis Set: (AUG-CC-PVTZ AUX)
    Blend: AUG-CC-PVTZ-JKFIT
  @DF-RHF Final Energy:  -188.84121620528578
    Total Energy =                       -188.8412162052857752
  //            Monomer B HF           //
    Molecular point group: c1

    Geometry (in Angstrom), charge = 0, multiplicity = 1:

       Center              X                  Y                   Z               Mass
    ------------   -----------------  -----------------  -----------------  -----------------
      Gh(C)          -1.941655222002     0.219150337033    -0.000001219633    12.000000000000
      Gh(H)          -3.034612222002     0.235316337033     0.000000780367     1.007825032230
      Gh(O)          -1.271876222002     1.235078337033    -0.000000219633    15.994914619570
      Gh(O)          -1.494067222002    -1.019880662967    -0.000001219633    15.994914619570
      Gh(H)          -0.495721222002    -1.025587662967    -0.000001219633     1.007825032230
         C            1.964285777998    -0.259810662967     0.000002780367    12.000000000000
         H            3.046981777998    -0.431836662967    -0.000001219633     1.007825032230
         O            1.174896777998    -1.202943662967    -0.000000219633    15.994914619570
         N            1.619452777998     1.033341337033     0.000000780367    14.003074004430
         H            0.634047777998     1.284661337033    -0.000000219633     1.007825032230
         H            2.329666777998     1.740221337033    -0.000001219633     1.007825032230

  Charge       = 0
  Multiplicity = 1
  Basis Set: AUG-CC-PVTZ
    Blend: AUG-CC-PVTZ
  Basis Set: (AUG-CC-PVTZ AUX)
    Blend: AUG-CC-PVTZ-JKFIT

    Orbital Energies [Eh]
    ---------------------

    Doubly Occupied:

       1A    -20.526102     2A    -15.602158     3A    -11.355934
       4A     -1.375703     5A     -1.228491     6A     -0.855264
       7A     -0.758902     8A     -0.677472     9A     -0.602298
      10A     -0.572014    11A     -0.434838    12A     -0.421731

  @DF-RHF Final Energy:  -169.00326762106050

   => Energetics <=

    Nuclear Repulsion Energy =             71.2263167891488962
    One-Electron Energy =                -371.6373519328249699
    Two-Electron Energy =                 131.4077675226155861
    Total Energy =                       -169.0032676210605018

  Dipole Moment: [D]
     X:     1.8680      Y:     4.0721      Z:    -0.0000     Total:     4.4801

    SAPT Results
  --------------------------------------------------------------------------------------------------------
    Electrostatics                -43.66406389 [mEh]     -27.39961376 [kcal/mol]    -114.63998396 [kJ/mol]
      Elst10,r                    -45.66845643 [mEh]     -28.65738906 [kcal/mol]    -119.90251583 [kJ/mol]
      Elst12,r                      2.00439253 [mEh]       1.25777530 [kcal/mol]       5.26253187 [kJ/mol]

    Exchange                       49.63425080 [mEh]      31.14596260 [kcal/mol]     130.31470753 [kJ/mol]
      Exch10                       43.11327031 [mEh]      27.05398557 [kcal/mol]     113.19387561 [kJ/mol]
      Exch10(S^2)                  42.47472457 [mEh]      26.65329207 [kcal/mol]     111.51737400 [kJ/mol]
      Exch11(S^2)                   0.21716904 [mEh]       0.13627563 [kcal/mol]       0.57017724 [kJ/mol]
      Exch12(S^2)                   6.30381144 [mEh]       3.95570140 [kcal/mol]      16.55065467 [kJ/mol]

    Induction                     -22.15961924 [mEh]     -13.90537101 [kcal/mol]     -58.18007230 [kJ/mol]
      Ind20,r                     -24.38829738 [mEh]     -15.30388765 [kcal/mol]     -64.03146595 [kJ/mol]
      Ind22                        -3.49758322 [mEh]      -2.19476661 [kcal/mol]      -9.18290348 [kJ/mol]
      Exch-Ind20,r                 12.59893467 [mEh]       7.90595086 [kcal/mol]      33.07849841 [kJ/mol]
      Exch-Ind22                    1.80684292 [mEh]       1.13381105 [kcal/mol]       4.74386544 [kJ/mol]
      delta HF,r (2)               -8.67951623 [mEh]      -5.44647866 [kcal/mol]     -22.78806673 [kJ/mol]

    Dispersion                    -13.90221867 [mEh]      -8.72377392 [kcal/mol]     -36.50027009 [kJ/mol]
      Disp20                      -14.69342712 [mEh]      -9.22026472 [kcal/mol]     -38.57758758 [kJ/mol]
      Disp21                        1.14750943 [mEh]       0.72007304 [kcal/mol]       3.01278560 [kJ/mol]
      Disp22 (SDQ)                 -0.40490422 [mEh]      -0.25408124 [kcal/mol]      -1.06307589 [kJ/mol]
      Disp22 (T)                   -2.46474383 [mEh]      -1.54665011 [kcal/mol]      -6.47118405 [kJ/mol]
      Est. Disp22 (T)              -2.81470090 [mEh]      -1.76625148 [kcal/mol]      -7.38999618 [kJ/mol]
      Exch-Disp20                   2.86330413 [mEh]       1.79675047 [kcal/mol]       7.51760397 [kJ/mol]

  Total HF                        -23.02406505 [mEh]     -14.44781895 [kcal/mol]     -60.44967447 [kJ/mol]
  Total SAPT0                     -34.85418804 [mEh]     -21.87133320 [kcal/mol]     -91.50965809 [kJ/mol]
  Total SAPT2                     -28.01955532 [mEh]     -17.58253641 [kcal/mol]     -73.56533235 [kJ/mol]
  Total SAPT2+                    -30.09165100 [mEh]     -18.88279609 [kcal/mol]     -79.00561883 [kJ/mol]

  Special recipe for scaled SAPT0 (see Manual):
    Electrostatics sSAPT0         -45.66845643 [mEh]     -28.65738906 [kcal/mol]    -119.90251583 [kJ/mol]
    Exchange sSAPT0                43.11327031 [mEh]      27.05398557 [kcal/mol]     113.19387561 [kJ/mol]
    Induction sSAPT0              -19.89207377 [mEh]     -12.48246474 [kcal/mol]     -52.22663248 [kJ/mol]
    Dispersion sSAPT0             -11.69903502 [mEh]      -7.34125531 [kcal/mol]     -30.71581222 [kJ/mol]
  Total sSAPT0                    -34.14629490 [mEh]     -21.42712355 [kcal/mol]     -89.65108492 [kJ/mol]
  --------------------------------------------------------------------------------------------------------

*** Psi4 exiting successfully. Buy a developer a beer!
