                               Psi4 1.3.2 release

  ==> Input File <==

--------------------------------------------------------------------------
#psi4
#
memory 32 gb

molecule  {
0 1
  C       -2.0482690     0.2828850     0.0000130
  H       -3.1457830     0.3491130    -0.0000080
  O       -1.3512910     1.2933720    -0.0000010
  N       -1.5923150    -0.9782630     0.0000040
  H       -0.5837530    -1.1752650     0.0000030
  H       -2.2528990    -1.7321960    -0.0000070
--
0 1
  C        2.2077015    -0.2714993     0.0000040
  H        3.2976135    -0.2977673    -0.0000000
  N        1.4757955    -1.3331583     0.0000020
  H        2.0755605    -2.1494772    -0.0000040
  N        1.6955265     0.9734428    -0.0000000
  H        0.6888865     1.1234187    -0.0000010
  H        2.3114135     1.7609957    -0.0000050
units angstrom
no_reorient  #important for SAPT in psi4, default
symmetry c1  #important for SAPT in psi4, default
}

set {
basis aug-cc-pVTZ
scf_type DF
freeze_core True
}
energy('sapt2+')
--------------------------------------------------------------------------

  //              Dimer HF             //
    Molecular point group: c1
  Charge       = 0
  Multiplicity = 1
  Basis Set: AUG-CC-PVTZ
    Blend: AUG-CC-PVTZ
  Basis Set: (AUG-CC-PVTZ AUX)
    Blend: AUG-CC-PVTZ-JKFIT
  @DF-RHF Final Energy:  -318.16535381671497
    Total Energy =                       -318.1653538167149691
  //            Monomer A HF           //
    Molecular point group: c1
  Multiplicity = 1
  Basis Set: AUG-CC-PVTZ
    Blend: AUG-CC-PVTZ
  Basis Set: (AUG-CC-PVTZ AUX)
    Blend: AUG-CC-PVTZ-JKFIT
  @DF-RHF Final Energy:  -169.00276102368863
    Total Energy =                       -169.0027610236886346
  //            Monomer B HF           //
    Molecular point group: c1

    Geometry (in Angstrom), charge = 0, multiplicity = 1:

       Center              X                  Y                   Z               Mass
    ------------   -----------------  -----------------  -----------------  -----------------
      Gh(C)          -2.102391676327     0.283441768845     0.000010194538    12.000000000000
      Gh(H)          -3.199905676327     0.349669768845    -0.000010805462     1.007825032230
      Gh(O)          -1.405413676327     1.293928768845    -0.000003805462    15.994914619570
      Gh(N)          -1.646437676327    -0.977706231155     0.000001194538    14.003074004430
      Gh(H)          -0.637875676327    -1.174708231155     0.000000194538     1.007825032230
      Gh(H)          -2.307021676327    -1.731639231155    -0.000009805462     1.007825032230
         C            2.153578823673    -0.270942531155     0.000001194538    12.000000000000
         H            3.243490823673    -0.297210531155    -0.000002805462     1.007825032230
         N            1.421672823673    -1.332601531155    -0.000000805462    14.003074004430
         H            2.021437823673    -2.148920431155    -0.000006805462     1.007825032230
         N            1.641403823673     0.973999568845    -0.000002805462    14.003074004430
         H            0.634763823673     1.123975468845    -0.000003805462     1.007825032230
         H            2.257290823673     1.761552468845    -0.000007805462     1.007825032230

  Charge       = 0
  Multiplicity = 1
  Basis Set: AUG-CC-PVTZ
    Blend: AUG-CC-PVTZ
  Basis Set: (AUG-CC-PVTZ AUX)
    Blend: AUG-CC-PVTZ-JKFIT

    Orbital Energies [Eh]
    ---------------------

    Doubly Occupied:

       1A    -15.580942     2A    -15.519596     3A    -11.314716
       4A     -1.259451     5A     -1.137359     6A     -0.830840
       7A     -0.746507     8A     -0.640069     9A     -0.616578
      10A     -0.530115    11A     -0.419652    12A     -0.359600

  @DF-RHF Final Energy:  -149.14352872391686

   => Energetics <=

    Nuclear Repulsion Energy =             72.2208391453814045
    One-Electron Energy =                -344.8178786243837521
    Two-Electron Energy =                 123.4535107550854605
    Total Energy =                       -149.1435287239168588

  Dipole Moment: [D]
     X:     2.1435      Y:     2.4667      Z:    -0.0000     Total:     3.2679

    SAPT Results
  --------------------------------------------------------------------------------------------------------
    Electrostatics                -31.21499843 [mEh]     -19.58770724 [kcal/mol]     -81.95496709 [kJ/mol]
      Elst10,r                    -32.00447217 [mEh]     -20.08310949 [kcal/mol]     -84.02773012 [kJ/mol]
      Elst12,r                      0.78947374 [mEh]       0.49540225 [kcal/mol]       2.07276302 [kJ/mol]

    Exchange                       27.33148762 [mEh]      17.15076741 [kcal/mol]      71.75881086 [kJ/mol]
      Exch10                       23.90917865 [mEh]      15.00323611 [kcal/mol]      62.77353989 [kJ/mol]
      Exch10(S^2)                  23.68184827 [mEh]      14.86058415 [kcal/mol]      62.17668407 [kJ/mol]
      Exch11(S^2)                   0.18690089 [mEh]       0.11728208 [kcal/mol]       0.49070821 [kJ/mol]
      Exch12(S^2)                   3.23540809 [mEh]       2.03024923 [kcal/mol]       8.49456276 [kJ/mol]

    Induction                     -11.73684924 [mEh]      -7.36498409 [kcal/mol]     -30.81509342 [kJ/mol]
      Ind20,r                     -12.89791571 [mEh]      -8.09356430 [kcal/mol]     -33.86347303 [kJ/mol]
      Ind22                        -1.49208072 [mEh]      -0.93629479 [kcal/mol]      -3.91745739 [kJ/mol]
      Exch-Ind20,r                  6.25849661 [mEh]       3.92726591 [kcal/mol]      16.43168058 [kJ/mol]
      Exch-Ind22                    0.72400707 [mEh]       0.45432129 [kcal/mol]       1.90088029 [kJ/mol]
      delta HF,r (2)               -4.32935648 [mEh]      -2.71671221 [kcal/mol]     -11.36672388 [kJ/mol]

    Dispersion                    -10.05657715 [mEh]      -6.31059744 [kcal/mol]     -26.40353968 [kJ/mol]
      Disp20                      -10.57243303 [mEh]      -6.63430189 [kcal/mol]     -27.75791910 [kJ/mol]
      Disp21                        0.63491090 [mEh]       0.39841260 [kcal/mol]       1.66695833 [kJ/mol]
      Disp22 (SDQ)                  0.01297341 [mEh]       0.00814094 [kcal/mol]       0.03406167 [kJ/mol]
      Disp22 (T)                   -1.72918875 [mEh]      -1.08508232 [kcal/mol]      -4.53998445 [kJ/mol]
      Est. Disp22 (T)              -1.98134825 [mEh]      -1.24331480 [kcal/mol]      -5.20202912 [kJ/mol]
      Exch-Disp20                   1.84931983 [mEh]       1.16046571 [kcal/mol]       4.85538854 [kJ/mol]

  Total HF                        -19.06406911 [mEh]     -11.96288397 [kcal/mol]     -50.05270655 [kJ/mol]
  Total SAPT0                     -27.78718231 [mEh]     -17.43672015 [kcal/mol]     -72.95523711 [kJ/mol]
  Total SAPT2                     -24.34347325 [mEh]     -15.27576009 [kcal/mol]     -63.91378021 [kJ/mol]
  Total SAPT2+                    -25.67693720 [mEh]     -16.11252135 [kcal/mol]     -67.41478933 [kJ/mol]

  Special recipe for scaled SAPT0 (see Manual):
    Electrostatics sSAPT0         -32.00447217 [mEh]     -20.08310949 [kcal/mol]     -84.02773012 [kJ/mol]
    Exchange sSAPT0                23.90917865 [mEh]      15.00323611 [kcal/mol]      62.77353989 [kJ/mol]
    Induction sSAPT0              -10.78680741 [mEh]      -6.76882384 [kcal/mol]     -28.32075896 [kJ/mol]
    Dispersion sSAPT0              -8.66934353 [mEh]      -5.44009519 [kcal/mol]     -22.76135829 [kJ/mol]
  Total sSAPT0                    -27.55144446 [mEh]     -17.28879242 [kcal/mol]     -72.33630747 [kJ/mol]
  --------------------------------------------------------------------------------------------------------

*** Psi4 exiting successfully. Buy a developer a beer!
