                               Psi4 1.3.2 release

  ==> Input File <==

--------------------------------------------------------------------------
#psi4
#
memory 32 gb

molecule  {
0 1
  C        2.0083120    -0.3372920     0.0000040
  H        3.1030340    -0.4288200    -0.0000030
  O        1.2864570    -1.3299810     0.0000000
  N        1.5810970     0.9343630     0.0000010
  H        0.5827550     1.1459700     0.0000010
  H        2.2521680     1.6786790    -0.0000030
--
0 1
  C       -2.0083120     0.3372920     0.0000010
  H       -3.1030340     0.4288200    -0.0000010
  O       -1.2864570     1.3299810     0.0000000
  N       -1.5810970    -0.9343630     0.0000000
  H       -0.5827550    -1.1459700     0.0000000
  H       -2.2521680    -1.6786790    -0.0000010
units angstrom
no_reorient  #important for SAPT in psi4, default
symmetry c1  #important for SAPT in psi4, default
}

set {
basis aug-cc-pVTZ
scf_type DF
freeze_core True
}
energy('sapt2+')
--------------------------------------------------------------------------

  //              Dimer HF             //
    Molecular point group: c1
  Charge       = 0
  Multiplicity = 1
  Basis Set: AUG-CC-PVTZ
    Blend: AUG-CC-PVTZ
  Basis Set: (AUG-CC-PVTZ AUX)
    Blend: AUG-CC-PVTZ-JKFIT
  @DF-RHF Final Energy:  -338.02602630973382
    Total Energy =                       -338.0260263097338225
  //            Monomer A HF           //
    Molecular point group: c1
  Multiplicity = 1
  Basis Set: AUG-CC-PVTZ
    Blend: AUG-CC-PVTZ
  Basis Set: (AUG-CC-PVTZ AUX)
    Blend: AUG-CC-PVTZ-JKFIT
  @DF-RHF Final Energy:  -169.00328994283379
    Total Energy =                       -169.0032899428337885
  //            Monomer B HF           //
    Molecular point group: c1

    Geometry (in Angstrom), charge = 0, multiplicity = 1:

       Center              X                  Y                   Z               Mass
    ------------   -----------------  -----------------  -----------------  -----------------
      Gh(C)           2.008312000000    -0.337292000000     0.000003256485    12.000000000000
      Gh(H)           3.103034000000    -0.428820000000    -0.000003743515     1.007825032230
      Gh(O)           1.286457000000    -1.329981000000    -0.000000743515    15.994914619570
      Gh(N)           1.581097000000     0.934363000000     0.000000256485    14.003074004430
      Gh(H)           0.582755000000     1.145970000000     0.000000256485     1.007825032230
      Gh(H)           2.252168000000     1.678679000000    -0.000003743515     1.007825032230
         C           -2.008312000000     0.337292000000     0.000000256485    12.000000000000
         H           -3.103034000000     0.428820000000    -0.000001743515     1.007825032230
         O           -1.286457000000     1.329981000000    -0.000000743515    15.994914619570
         N           -1.581097000000    -0.934363000000    -0.000000743515    14.003074004430
         H           -0.582755000000    -1.145970000000    -0.000000743515     1.007825032230
         H           -2.252168000000    -1.678679000000    -0.000001743515     1.007825032230

  Charge       = 0
  Multiplicity = 1
  Basis Set: AUG-CC-PVTZ
    Blend: AUG-CC-PVTZ
  Basis Set: (AUG-CC-PVTZ AUX)
    Blend: AUG-CC-PVTZ-JKFIT

    Orbital Energies [Eh]
    ---------------------

    Doubly Occupied:

       1A    -20.526937     2A    -15.602087     3A    -11.356548
       4A     -1.376928     5A     -1.227371     6A     -0.854903
       7A     -0.756202     8A     -0.677329     9A     -0.603161
      10A     -0.571941    11A     -0.435225    12A     -0.422128

  @DF-RHF Final Energy:  -169.00328994275455

   => Energetics <=

    Nuclear Repulsion Energy =             71.1611145121232624
    One-Electron Energy =                -371.5072876112723179
    Two-Electron Energy =                 131.3428831563944925
    Total Energy =                       -169.0032899427545487

  Dipole Moment: [D]
     X:    -1.5818      Y:    -4.1738      Z:    -0.0000     Total:     4.4634

    SAPT Results
  --------------------------------------------------------------------------------------------------------
    Electrostatics                -37.51848666 [mEh]     -23.54320582 [kcal/mol]     -98.50477317 [kJ/mol]
      Elst10,r                    -38.96265017 [mEh]     -24.44943211 [kcal/mol]    -102.29642394 [kJ/mol]
      Elst12,r                      1.44416351 [mEh]       0.90622628 [kcal/mol]       3.79165077 [kJ/mol]

    Exchange                       39.45465363 [mEh]      24.75816894 [kcal/mol]     103.58817884 [kJ/mol]
      Exch10                       34.29686885 [mEh]      21.52161012 [kcal/mol]      90.04641675 [kJ/mol]
      Exch10(S^2)                  33.90166426 [mEh]      21.27361550 [kcal/mol]      89.00880726 [kJ/mol]
      Exch11(S^2)                   0.13310323 [mEh]       0.08352354 [kcal/mol]       0.34946249 [kJ/mol]
      Exch12(S^2)                   5.02468155 [mEh]       3.15303528 [kcal/mol]      13.19229960 [kJ/mol]

    Induction                     -15.96049260 [mEh]     -10.01536031 [kcal/mol]     -41.90426755 [kJ/mol]
      Ind20,r                     -17.66707562 [mEh]     -11.08625733 [kcal/mol]     -46.38490066 [kJ/mol]
      Ind22                        -2.42705268 [mEh]      -1.52299855 [kcal/mol]      -6.37222593 [kJ/mol]
      Exch-Ind20,r                  9.07867723 [mEh]       5.69695597 [kcal/mol]      23.83606378 [kJ/mol]
      Exch-Ind22                    1.24720290 [mEh]       0.78263163 [kcal/mol]       3.27453075 [kJ/mol]
      delta HF,r (2)               -6.19224442 [mEh]      -3.88569204 [kcal/mol]     -16.25773549 [kJ/mol]

    Dispersion                    -12.31601892 [mEh]      -7.72841855 [kcal/mol]     -32.33570321 [kJ/mol]
      Disp20                      -12.99736869 [mEh]      -8.15597199 [kcal/mol]     -34.12458680 [kJ/mol]
      Disp21                        0.87070164 [mEh]       0.54637353 [kcal/mol]       2.28602685 [kJ/mol]
      Disp22 (SDQ)                 -0.17013186 [mEh]      -0.10675935 [kcal/mol]      -0.44668113 [kJ/mol]
      Disp22 (T)                   -2.12632584 [mEh]      -1.33428961 [kcal/mol]      -5.58266773 [kJ/mol]
      Est. Disp22 (T)              -2.43901271 [mEh]      -1.53050358 [kcal/mol]      -6.40362698 [kJ/mol]
      Exch-Disp20                   2.41979269 [mEh]       1.51844284 [kcal/mol]       6.35316484 [kJ/mol]

  Total HF                        -19.44642415 [mEh]     -12.20281538 [kcal/mol]     -51.05657956 [kJ/mol]
  Total SAPT0                     -30.02400014 [mEh]     -18.84034453 [kcal/mol]     -78.82800152 [kJ/mol]
  Total SAPT2                     -24.60190163 [mEh]     -15.43792634 [kcal/mol]     -64.59228383 [kJ/mol]
  Total SAPT2+                    -26.34034455 [mEh]     -16.52881575 [kcal/mol]     -69.15656508 [kJ/mol]

  Special recipe for scaled SAPT0 (see Manual):
    Electrostatics sSAPT0         -38.96265017 [mEh]     -24.44943211 [kcal/mol]    -102.29642394 [kJ/mol]
    Exchange sSAPT0                34.29686885 [mEh]      21.52161012 [kcal/mol]      90.04641675 [kJ/mol]
    Induction sSAPT0              -14.45942644 [mEh]      -9.07342707 [kcal/mol]     -37.96321888 [kJ/mol]
    Dispersion sSAPT0             -10.49196033 [mEh]      -6.58380450 [kcal/mol]     -27.54663804 [kJ/mol]
  Total sSAPT0                    -29.61716809 [mEh]     -18.58505356 [kcal/mol]     -77.75986411 [kJ/mol]
  --------------------------------------------------------------------------------------------------------

*** Psi4 exiting successfully. Buy a developer a beer!
