                               Psi4 1.3.2 release

  ==> Input File <==

--------------------------------------------------------------------------
#psi4
#
memory 32 gb

molecule  {
0 1
  C       -2.0482690     0.2828850     0.0000130
  H       -3.1457830     0.3491130    -0.0000080
  O       -1.3512910     1.2933720    -0.0000010
  N       -1.5923150    -0.9782630     0.0000040
  H       -0.5837530    -1.1752650     0.0000030
  H       -2.2528990    -1.7321960    -0.0000070
--
0 1
  C        2.3532951    -0.2875665     0.0000039
  H        3.4432071    -0.3138345    -0.0000001
  N        1.6213891    -1.3492255     0.0000019
  H        2.2211541    -2.1655445    -0.0000041
  N        1.8411201     0.9573755    -0.0000001
  H        0.8344801     1.1073515    -0.0000011
  H        2.4570071     1.7449285    -0.0000051
units angstrom
no_reorient  #important for SAPT in psi4, default
symmetry c1  #important for SAPT in psi4, default
}

set {
basis aug-cc-pVTZ
scf_type DF
freeze_core True
}
energy('sapt2+')
--------------------------------------------------------------------------

  //              Dimer HF             //
    Molecular point group: c1
  Charge       = 0
  Multiplicity = 1
  Basis Set: AUG-CC-PVTZ
    Blend: AUG-CC-PVTZ
  Basis Set: (AUG-CC-PVTZ AUX)
    Blend: AUG-CC-PVTZ-JKFIT
  @DF-RHF Final Energy:  -318.16451143970568
    Total Energy =                       -318.1645114397056773
  //            Monomer A HF           //
    Molecular point group: c1
  Multiplicity = 1
  Basis Set: AUG-CC-PVTZ
    Blend: AUG-CC-PVTZ
  Basis Set: (AUG-CC-PVTZ AUX)
    Blend: AUG-CC-PVTZ-JKFIT
  @DF-RHF Final Energy:  -169.00274334334733
    Total Energy =                       -169.0027433433473334
  //            Monomer B HF           //
    Molecular point group: c1

    Geometry (in Angstrom), charge = 0, multiplicity = 1:

       Center              X                  Y                   Z               Mass
    ------------   -----------------  -----------------  -----------------  -----------------
      Gh(C)          -2.174384141487     0.291386622123     0.000010243986    12.000000000000
      Gh(H)          -3.271898141487     0.357614622123    -0.000010756014     1.007825032230
      Gh(O)          -1.477406141487     1.301873622123    -0.000003756014    15.994914619570
      Gh(N)          -1.718430141487    -0.969761377877     0.000001243986    14.003074004430
      Gh(H)          -0.709868141487    -1.166763377877     0.000000243986     1.007825032230
      Gh(H)          -2.379014141487    -1.723694377877    -0.000009756014     1.007825032230
         C            2.227179958513    -0.279064877877     0.000001143986    12.000000000000
         H            3.317091958513    -0.305332877877    -0.000002856014     1.007825032230
         N            1.495273958513    -1.340723877877    -0.000000856014    14.003074004430
         H            2.095038958513    -2.157042877877    -0.000006856014     1.007825032230
         N            1.715004958513     0.965877122123    -0.000002856014    14.003074004430
         H            0.708364958513     1.115853122123    -0.000003856014     1.007825032230
         H            2.330891958513     1.753430122123    -0.000007856014     1.007825032230

  Charge       = 0
  Multiplicity = 1
  Basis Set: AUG-CC-PVTZ
    Blend: AUG-CC-PVTZ
  Basis Set: (AUG-CC-PVTZ AUX)
    Blend: AUG-CC-PVTZ-JKFIT

    Orbital Energies [Eh]
    ---------------------

    Doubly Occupied:

       1A    -15.580946     2A    -15.519592     3A    -11.314718
       4A     -1.259453     5A     -1.137361     6A     -0.830842
       7A     -0.746509     8A     -0.640070     9A     -0.616580
      10A     -0.530116    11A     -0.419649    12A     -0.359602

  @DF-RHF Final Energy:  -149.14351128910056

   => Energetics <=

    Nuclear Repulsion Energy =             72.2208400742530330
    One-Electron Energy =                -344.8178261753387801
    Two-Electron Energy =                 123.4534748119851884
    Total Energy =                       -149.1435112891005588

  Dipole Moment: [D]
     X:     2.1436      Y:     2.4667      Z:    -0.0000     Total:     3.2680

    SAPT Results
  --------------------------------------------------------------------------------------------------------
    Electrostatics                -24.64874123 [mEh]     -15.46731864 [kcal/mol]     -64.71526119 [kJ/mol]
      Elst10,r                    -25.49886788 [mEh]     -16.00078116 [kcal/mol]     -66.94726839 [kJ/mol]
      Elst12,r                      0.85012664 [mEh]       0.53346252 [kcal/mol]       2.23200720 [kJ/mol]

    Exchange                       17.15768509 [mEh]      10.76660994 [kcal/mol]      45.04749599 [kJ/mol]
      Exch10                       14.71948598 [mEh]       9.23661690 [kcal/mol]      38.64600512 [kJ/mol]
      Exch10(S^2)                  14.62598482 [mEh]       9.17794404 [kcal/mol]      38.40051785 [kJ/mol]
      Exch11(S^2)                   0.08735906 [mEh]       0.05481864 [kcal/mol]       0.22936119 [kJ/mol]
      Exch12(S^2)                   2.35084004 [mEh]       1.47517440 [kcal/mol]       6.17212968 [kJ/mol]

    Induction                      -8.02456231 [mEh]      -5.03548887 [kcal/mol]     -21.06848544 [kJ/mol]
      Ind20,r                      -8.55014804 [mEh]      -5.36529890 [kcal/mol]     -22.44841059 [kJ/mol]
      Ind22                        -0.97524514 [mEh]      -0.61197556 [kcal/mol]      -2.56050576 [kJ/mol]
      Exch-Ind20,r                  3.75330086 [mEh]       2.35523185 [kcal/mol]       9.85429005 [kJ/mol]
      Exch-Ind22                    0.42810819 [mEh]       0.26864195 [kcal/mol]       1.12399790 [kJ/mol]
      delta HF,r (2)               -2.68057818 [mEh]      -1.68208820 [kcal/mol]      -7.03785704 [kJ/mol]

    Dispersion                     -7.73793334 [mEh]      -4.85562648 [kcal/mol]     -20.31594119 [kJ/mol]
      Disp20                       -7.87321602 [mEh]      -4.94051764 [kcal/mol]     -20.67112582 [kJ/mol]
      Disp21                        0.43507757 [mEh]       0.27301530 [kcal/mol]       1.14229601 [kJ/mol]
      Disp22 (SDQ)                 -0.00067752 [mEh]      -0.00042515 [kcal/mol]      -0.00177884 [kJ/mol]
      Disp22 (T)                   -1.32798756 [mEh]      -0.83332478 [kcal/mol]      -3.48663086 [kJ/mol]
      Est. Disp22 (T)              -1.51507477 [mEh]      -0.95072377 [kcal/mol]      -3.97782826 [kJ/mol]
      Exch-Disp20                   1.21595740 [mEh]       0.76302479 [kcal/mol]       3.19249572 [kJ/mol]

  Total HF                        -18.25680726 [mEh]     -11.45631952 [kcal/mol]     -47.93324085 [kJ/mol]
  Total SAPT0                     -24.91406588 [mEh]     -15.63381237 [kcal/mol]     -65.41187095 [kJ/mol]
  Total SAPT2                     -22.17287708 [mEh]     -13.91369043 [kcal/mol]     -58.21488074 [kJ/mol]
  Total SAPT2+                    -23.25355180 [mEh]     -14.59182405 [kcal/mol]     -61.05219184 [kJ/mol]

  Special recipe for scaled SAPT0 (see Manual):
    Electrostatics sSAPT0         -25.49886788 [mEh]     -16.00078116 [kcal/mol]     -66.94726839 [kJ/mol]
    Exchange sSAPT0                14.71948598 [mEh]       9.23661690 [kcal/mol]      38.64600512 [kJ/mol]
    Induction sSAPT0               -7.40498178 [mEh]      -4.64669622 [kcal/mol]     -19.44177698 [kJ/mol]
    Dispersion sSAPT0              -6.63378906 [mEh]      -4.16276548 [kcal/mol]     -17.41701078 [kJ/mol]
  Total sSAPT0                    -24.81815273 [mEh]     -15.57362596 [kcal/mol]     -65.16005103 [kJ/mol]
  --------------------------------------------------------------------------------------------------------

*** Psi4 exiting successfully. Buy a developer a beer!
