                               Psi4 1.3.2 release

  ==> Input File <==

--------------------------------------------------------------------------
#psi4
#
memory 32 gb

molecule  {
0 1
  C       -1.9521150     0.2323370    -0.0000010
  H       -3.0450720     0.2485030     0.0000010
  O       -1.2823360     1.2482650     0.0000000
  O       -1.5045270    -1.0066940    -0.0000010
  H       -0.5061810    -1.0124010    -0.0000010
--
0 1
  C        1.3977967    -0.2081440     0.0000028
  H        2.4804927    -0.3801700    -0.0000012
  O        0.6084077    -1.1512770    -0.0000002
  N        1.0529637     1.0850080     0.0000008
  H        0.0675587     1.3363280    -0.0000002
  H        1.7631777     1.7918880    -0.0000012
units angstrom
no_reorient  #important for SAPT in psi4, default
symmetry c1  #important for SAPT in psi4, default
}

set {
basis aug-cc-pVTZ
scf_type DF
freeze_core True
}
energy('sapt2+')
--------------------------------------------------------------------------

  //              Dimer HF             //
    Molecular point group: c1
  Charge       = 0
  Multiplicity = 1
  Basis Set: AUG-CC-PVTZ
    Blend: AUG-CC-PVTZ
  Basis Set: (AUG-CC-PVTZ AUX)
    Blend: AUG-CC-PVTZ-JKFIT
  @DF-RHF Final Energy:  -357.80686158864586
    Total Energy =                       -357.8068615886458588
  //            Monomer A HF           //
    Molecular point group: c1
  Multiplicity = 1
  Basis Set: AUG-CC-PVTZ
    Blend: AUG-CC-PVTZ
  Basis Set: (AUG-CC-PVTZ AUX)
    Blend: AUG-CC-PVTZ-JKFIT
  @DF-RHF Final Energy:  -188.84141088642485
    Total Energy =                       -188.8414108864248533
  //            Monomer B HF           //
    Molecular point group: c1

    Geometry (in Angstrom), charge = 0, multiplicity = 1:

       Center              X                  Y                   Z               Mass
    ------------   -----------------  -----------------  -----------------  -----------------
      Gh(C)          -1.666645954131     0.200118324462    -0.000001120714    12.000000000000
      Gh(H)          -2.759602954131     0.216284324462     0.000000879286     1.007825032230
      Gh(O)          -0.996866954131     1.216046324462    -0.000000120714    15.994914619570
      Gh(O)          -1.219057954131    -1.038912675538    -0.000001120714    15.994914619570
      Gh(H)          -0.220711954131    -1.044619675538    -0.000001120714     1.007825032230
         C            1.683265745869    -0.240362675538     0.000002679286    12.000000000000
         H            2.765961745869    -0.412388675538    -0.000001320714     1.007825032230
         O            0.893876745869    -1.183495675538    -0.000000320714    15.994914619570
         N            1.338432745869     1.052789324462     0.000000679286    14.003074004430
         H            0.353027745869     1.304109324462    -0.000000320714     1.007825032230
         H            2.048646745869     1.759669324462    -0.000001320714     1.007825032230

  Charge       = 0
  Multiplicity = 1
  Basis Set: AUG-CC-PVTZ
    Blend: AUG-CC-PVTZ
  Basis Set: (AUG-CC-PVTZ AUX)
    Blend: AUG-CC-PVTZ-JKFIT

    Orbital Energies [Eh]
    ---------------------

    Doubly Occupied:

       1A    -20.526036     2A    -15.602118     3A    -11.355920
       4A     -1.375668     5A     -1.228458     6A     -0.855243
       7A     -0.758874     8A     -0.677446     9A     -0.602278
      10A     -0.572003    11A     -0.434804    12A     -0.421715

  @DF-RHF Final Energy:  -169.00341948533577

   => Energetics <=

    Nuclear Repulsion Energy =             71.2263167891488820
    One-Electron Energy =                -371.6383415254921943
    Two-Electron Energy =                 131.4086052510075433
    Total Energy =                       -169.0034194853357690

  Dipole Moment: [D]
     X:     1.8666      Y:     4.0716      Z:    -0.0000     Total:     4.4791

    SAPT Results
  --------------------------------------------------------------------------------------------------------
    Electrostatics               -135.01445895 [mEh]     -84.72285209 [kcal/mol]    -354.48041313 [kJ/mol]
      Elst10,r                   -136.69436070 [mEh]     -85.77700635 [kcal/mol]    -358.89099458 [kJ/mol]
      Elst12,r                      1.67990175 [mEh]       1.05415427 [kcal/mol]       4.41058145 [kJ/mol]

    Exchange                      306.96225767 [mEh]     192.62172478 [kcal/mol]     805.92929649 [kJ/mol]
      Exch10                      290.55741339 [mEh]     182.32752958 [kcal/mol]     762.85838377 [kJ/mol]
      Exch10(S^2)                 269.97621382 [mEh]     169.41263187 [kcal/mol]     708.82245174 [kJ/mol]
      Exch11(S^2)                   0.29009815 [mEh]       0.18203934 [kcal/mol]       0.76165259 [kJ/mol]
      Exch12(S^2)                  16.11474613 [mEh]      10.11215586 [kcal/mol]      42.30926013 [kJ/mol]

    Induction                    -124.74256166 [mEh]     -78.27713922 [kcal/mol]    -327.51155051 [kJ/mol]
      Ind20,r                    -172.15258212 [mEh]    -108.02737621 [kcal/mol]    -451.98654208 [kJ/mol]
      Ind22                       -21.12778357 [mEh]     -13.25788435 [kcal/mol]     -55.47098813 [kJ/mol]
      Exch-Ind20,r                100.05527368 [mEh]      62.78563213 [kcal/mol]     262.69508485 [kJ/mol]
      Exch-Ind22                   12.27949149 [mEh]       7.70549725 [kcal/mol]      32.23980047 [kJ/mol]
      delta HF,r (2)              -43.79696114 [mEh]     -27.48300804 [kcal/mol]    -114.98890563 [kJ/mol]

    Dispersion                    -43.40514471 [mEh]     -27.23713951 [kcal/mol]    -113.96019173 [kJ/mol]
      Disp20                      -53.00484706 [mEh]     -33.26104369 [kcal/mol]    -139.16420679 [kJ/mol]
      Disp21                        7.25527936 [mEh]       4.55275653 [kcal/mol]      19.04873333 [kJ/mol]
      Disp22 (SDQ)                 -1.57619104 [mEh]      -0.98907481 [kcal/mol]      -4.13828900 [kJ/mol]
      Disp22 (T)                   -7.80228414 [mEh]      -4.89600722 [kcal/mol]     -20.48489419 [kJ/mol]
      Est. Disp22 (T)              -8.59435961 [mEh]      -5.39304208 [kcal/mol]     -22.56448805 [kJ/mol]
      Exch-Disp20                  12.51497364 [mEh]       7.85326453 [kcal/mol]      32.85805878 [kJ/mol]

  Total HF                         37.96878311 [mEh]      23.82577111 [kcal/mol]      99.68702633 [kJ/mol]
  Total SAPT0                      -2.52109030 [mEh]      -1.58200805 [kcal/mol]      -6.61912168 [kJ/mol]
  Total SAPT2                       6.71536365 [mEh]       4.21395431 [kcal/mol]      17.63118483 [kJ/mol]
  Total SAPT2+                      3.80009236 [mEh]       2.38459396 [kcal/mol]       9.97714112 [kJ/mol]

  Special recipe for scaled SAPT0 (see Manual):
    Electrostatics sSAPT0        -136.69436070 [mEh]     -85.77700635 [kcal/mol]    -358.89099458 [kJ/mol]
    Exchange sSAPT0               290.55741339 [mEh]     182.32752958 [kcal/mol]     762.85838377 [kJ/mol]
    Induction sSAPT0              -91.22286426 [mEh]     -57.24321155 [kcal/mol]    -239.50559711 [kJ/mol]
    Dispersion sSAPT0             -37.40395924 [mEh]     -23.47133878 [kcal/mol]     -98.20408146 [kJ/mol]
  Total sSAPT0                     25.23622919 [mEh]      15.83597290 [kcal/mol]      66.25771061 [kJ/mol]
  --------------------------------------------------------------------------------------------------------

*** Psi4 exiting successfully. Buy a developer a beer!
