                               Psi4 1.3.2 release

  ==> Input File <==

--------------------------------------------------------------------------
#psi4
#
memory 32 gb

molecule  {
0 1
  C        2.0083120    -0.3372920     0.0000040
  H        3.1030340    -0.4288200    -0.0000030
  O        1.2864570    -1.3299810     0.0000000
  N        1.5810970     0.9343630     0.0000010
  H        0.5827550     1.1459700     0.0000010
  H        3.1124342     1.5599936    -0.0000029
--
0 1
  C       -1.1480458     0.2186066     0.0000012
  H       -2.2427678     0.3101346    -0.0000008
  O       -0.4261908     1.2112956     0.0000002
  N       -0.7208308    -1.0530484     0.0000002
  H        0.2775112    -1.2646554     0.0000002
  H       -1.3919018    -1.7973644    -0.0000008
units angstrom
no_reorient  #important for SAPT in psi4, default
symmetry c1  #important for SAPT in psi4, default
}

set {
basis aug-cc-pVTZ
scf_type DF
freeze_core True
}
energy('sapt2+')
--------------------------------------------------------------------------

  //              Dimer HF             //
    Molecular point group: c1
  Charge       = 0
  Multiplicity = 1
  Basis Set: AUG-CC-PVTZ
    Blend: AUG-CC-PVTZ
  Basis Set: (AUG-CC-PVTZ AUX)
    Blend: AUG-CC-PVTZ-JKFIT
  @DF-RHF Final Energy:  -337.68805468076368
    Total Energy =                       -337.6880546807636847
  //            Monomer A HF           //
    Molecular point group: c1
  Multiplicity = 1
  Basis Set: AUG-CC-PVTZ
    Blend: AUG-CC-PVTZ
  Basis Set: (AUG-CC-PVTZ AUX)
    Blend: AUG-CC-PVTZ-JKFIT
  @DF-RHF Final Energy:  -168.83946554317751
    Total Energy =                       -168.8394655431775107
  //            Monomer B HF           //
    Molecular point group: c1

    Geometry (in Angstrom), charge = 0, multiplicity = 1:

       Center              X                  Y                   Z               Mass
    ------------   -----------------  -----------------  -----------------  -----------------
      Gh(C)           1.568550183616    -0.276620887869     0.000003155365    12.000000000000
      Gh(H)           2.663272183616    -0.368148887869    -0.000003844635     1.007825032230
      Gh(O)           0.846695183616    -1.269309887869    -0.000000844635    15.994914619570
      Gh(N)           1.141335183616     0.995034112131     0.000000155365    14.003074004430
      Gh(H)           0.142993183616     1.206641112131     0.000000155365     1.007825032230
      Gh(H)           2.672672383616     1.620664712131    -0.000003744635     1.007825032230
         C           -1.587807616384     0.279277712131     0.000000355365    12.000000000000
         H           -2.682529616384     0.370805712131    -0.000001644635     1.007825032230
         O           -0.865952616384     1.271966712131    -0.000000644635    15.994914619570
         N           -1.160592616384    -0.992377287869    -0.000000644635    14.003074004430
         H           -0.162250616384    -1.203984287869    -0.000000644635     1.007825032230
         H           -1.831663616384    -1.736693287869    -0.000001644635     1.007825032230

  Charge       = 0
  Multiplicity = 1
  Basis Set: AUG-CC-PVTZ
    Blend: AUG-CC-PVTZ
  Basis Set: (AUG-CC-PVTZ AUX)
    Blend: AUG-CC-PVTZ-JKFIT

    Orbital Energies [Eh]
    ---------------------

    Doubly Occupied:

       1A    -20.526795     2A    -15.602026     3A    -11.356519
       4A     -1.376866     5A     -1.227326     6A     -0.854872
       7A     -0.756166     8A     -0.677301     9A     -0.603126
      10A     -0.571920    11A     -0.435183    12A     -0.422103

  @DF-RHF Final Energy:  -169.00354871561484

   => Energetics <=

    Nuclear Repulsion Energy =             71.1611145121232624
    One-Electron Energy =                -371.5089200832811684
    Two-Electron Energy =                 131.3442568555430512
    Total Energy =                       -169.0035487156148406

  Dipole Moment: [D]
     X:    -1.5801      Y:    -4.1728      Z:    -0.0000     Total:     4.4620

    SAPT Results
  --------------------------------------------------------------------------------------------------------
    Electrostatics               -217.47548478 [mEh]    -136.46792702 [kcal/mol]    -570.98180664 [kJ/mol]
      Elst10,r                   -222.80152637 [mEh]    -139.81006857 [kcal/mol]    -584.96532690 [kJ/mol]
      Elst12,r                      5.32604159 [mEh]       3.34214155 [kcal/mol]      13.98352026 [kJ/mol]

    Exchange                      634.07428365 [mEh]     397.88762007 [kcal/mol]    1664.76180238 [kJ/mol]
      Exch10                      621.77996470 [mEh]     390.17281845 [kcal/mol]    1632.48307240 [kJ/mol]
      Exch10(S^2)                 540.92545337 [mEh]     339.43584660 [kcal/mol]    1420.19958216 [kJ/mol]
      Exch11(S^2)                   0.12744355 [mEh]       0.07997204 [kcal/mol]       0.33460301 [kJ/mol]
      Exch12(S^2)                  12.16687540 [mEh]       7.63482958 [kcal/mol]      31.94412697 [kJ/mol]

    Induction                    -261.76540940 [mEh]    -164.26027431 [kcal/mol]    -687.26498770 [kJ/mol]
      Ind20,r                    -397.66633374 [mEh]    -249.53939182 [kcal/mol]   -1044.07281539 [kJ/mol]
      Ind22                       -37.94993931 [mEh]     -23.81394645 [kcal/mol]     -99.63755194 [kJ/mol]
      Exch-Ind20,r                211.70542715 [mEh]     132.84716119 [kcal/mol]     555.83252242 [kJ/mol]
      Exch-Ind22                   20.20339021 [mEh]      12.67781876 [kcal/mol]      53.04399368 [kJ/mol]
      delta HF,r (2)              -58.05795371 [mEh]     -36.43191598 [kcal/mol]    -152.43113647 [kJ/mol]

    Dispersion                    -75.97037339 [mEh]     -47.67212903 [kcal/mol]    -199.46018785 [kJ/mol]
      Disp20                      -95.71883815 [mEh]     -60.06447776 [kcal/mol]    -251.30977494 [kJ/mol]
      Disp21                       17.73256771 [mEh]      11.12735423 [kcal/mol]      46.55685012 [kJ/mol]
      Disp22 (SDQ)                 -2.87618011 [mEh]      -1.80483027 [kcal/mol]      -7.55140985 [kJ/mol]
      Disp22 (T)                  -13.57560988 [mEh]      -8.51882381 [kcal/mol]     -35.64275883 [kJ/mol]
      Est. Disp22 (T)             -14.55497943 [mEh]      -9.13338748 [kcal/mol]     -38.21409324 [kJ/mol]
      Exch-Disp20                  19.44705659 [mEh]      12.20321225 [kcal/mol]      51.05824005 [kJ/mol]

  Total HF                        154.95957803 [mEh]      97.23860327 [kcal/mol]     406.84631606 [kJ/mol]
  Total SAPT0                      78.68779647 [mEh]      49.37733776 [kcal/mol]     206.59478118 [kJ/mol]
  Total SAPT2                      78.56160791 [mEh]      49.29815324 [kcal/mol]     206.26347316 [kJ/mol]
  Total SAPT2+                     78.86301608 [mEh]      49.48728972 [kcal/mol]     207.05482020 [kJ/mol]

  Special recipe for scaled SAPT0 (see Manual):
    Electrostatics sSAPT0        -222.80152637 [mEh]    -139.81006857 [kcal/mol]    -584.96532690 [kJ/mol]
    Exchange sSAPT0               621.77996470 [mEh]     390.17281845 [kcal/mol]    1632.48307240 [kJ/mol]
    Induction sSAPT0             -134.18806152 [mEh]     -84.20427987 [kcal/mol]    -352.31070698 [kJ/mol]
    Dispersion sSAPT0             -66.18283018 [mEh]     -41.53035294 [kcal/mol]    -173.76299671 [kJ/mol]
  Total sSAPT0                    198.60754662 [mEh]     124.62811707 [kcal/mol]     521.44404181 [kJ/mol]
  --------------------------------------------------------------------------------------------------------

*** Psi4 exiting successfully. Buy a developer a beer!
