                               Psi4 1.3.2 release

  ==> Input File <==

--------------------------------------------------------------------------
#psi4
#
memory 32 gb

molecule  {
0 1
  C        2.0083120    -0.3372920     0.0000040
  H        3.1030340    -0.4288200    -0.0000030
  O        1.2864570    -1.3299810     0.0000000
  N        1.5810970     0.9343630     0.0000010
  H        0.5827550     1.1459700     0.0000010
  H        2.3955457     1.6588981    -0.0000030
--
0 1
  C       -1.8649343     0.3175111     0.0000010
  H       -2.9596563     0.4090391    -0.0000010
  O       -1.1430793     1.3102001     0.0000000
  N       -1.4377193    -0.9541439     0.0000000
  H       -0.4393773    -1.1657509     0.0000000
  H       -2.1087903    -1.6984599    -0.0000010
units angstrom
no_reorient  #important for SAPT in psi4, default
symmetry c1  #important for SAPT in psi4, default
}

set {
basis aug-cc-pVTZ
scf_type DF
freeze_core True
}
energy('sapt2+')
--------------------------------------------------------------------------

  //              Dimer HF             //
    Molecular point group: c1
  Charge       = 0
  Multiplicity = 1
  Basis Set: AUG-CC-PVTZ
    Blend: AUG-CC-PVTZ
  Basis Set: (AUG-CC-PVTZ AUX)
    Blend: AUG-CC-PVTZ-JKFIT
  @DF-RHF Final Energy:  -338.01421295435364
    Total Energy =                       -338.0142129543536385
  //            Monomer A HF           //
    Molecular point group: c1
  Multiplicity = 1
  Basis Set: AUG-CC-PVTZ
    Blend: AUG-CC-PVTZ
  Basis Set: (AUG-CC-PVTZ AUX)
    Blend: AUG-CC-PVTZ-JKFIT
  @DF-RHF Final Energy:  -168.99321882142675
    Total Energy =                       -168.9932188214267512
  //            Monomer B HF           //
    Molecular point group: c1

    Geometry (in Angstrom), charge = 0, multiplicity = 1:

       Center              X                  Y                   Z               Mass
    ------------   -----------------  -----------------  -----------------  -----------------
      Gh(C)           1.935018363936    -0.327180147978     0.000003256485    12.000000000000
      Gh(H)           3.029740363936    -0.418708147978    -0.000003743515     1.007825032230
      Gh(O)           1.213163363936    -1.319869147978    -0.000000743515    15.994914619570
      Gh(N)           1.507803363936     0.944474852022     0.000000256485    14.003074004430
      Gh(H)           0.509461363936     1.156081852022     0.000000256485     1.007825032230
      Gh(H)           2.322252063936     1.669009952022    -0.000003743515     1.007825032230
         C           -1.938227936064     0.327622952022     0.000000256485    12.000000000000
         H           -3.032949936064     0.419150952022    -0.000001743515     1.007825032230
         O           -1.216372936064     1.320311952022    -0.000000743515    15.994914619570
         N           -1.511012936064    -0.944032047978    -0.000000743515    14.003074004430
         H           -0.512670936064    -1.155639047978    -0.000000743515     1.007825032230
         H           -2.182083936064    -1.688348047978    -0.000001743515     1.007825032230

  Charge       = 0
  Multiplicity = 1
  Basis Set: AUG-CC-PVTZ
    Blend: AUG-CC-PVTZ
  Basis Set: (AUG-CC-PVTZ AUX)
    Blend: AUG-CC-PVTZ-JKFIT

    Orbital Energies [Eh]
    ---------------------

    Doubly Occupied:

       1A    -20.526930     2A    -15.602082     3A    -11.356543
       4A     -1.376920     5A     -1.227364     6A     -0.854899
       7A     -0.756198     8A     -0.677328     9A     -0.603156
      10A     -0.571934    11A     -0.435225    12A     -0.422122

  @DF-RHF Final Energy:  -169.00332703220411

   => Energetics <=

    Nuclear Repulsion Energy =             71.1611145121232624
    One-Electron Energy =                -371.5074797054971896
    Two-Electron Energy =                 131.3430381611698010
    Total Energy =                       -169.0033270322041119

  Dipole Moment: [D]
     X:    -1.5816      Y:    -4.1736      Z:    -0.0000     Total:     4.4633

    SAPT Results
  --------------------------------------------------------------------------------------------------------
    Electrostatics                -49.42729006 [mEh]     -31.01609278 [kcal/mol]    -129.77133218 [kJ/mol]
      Elst10,r                    -50.83555458 [mEh]     -31.89979210 [kcal/mol]    -133.46873016 [kJ/mol]
      Elst12,r                      1.40826452 [mEh]       0.88369932 [kcal/mol]       3.69739798 [kJ/mol]

    Exchange                       63.10197196 [mEh]      39.59708522 [kcal/mol]     165.67420455 [kJ/mol]
      Exch10                       56.00207766 [mEh]      35.14183428 [kcal/mol]     147.03343463 [kJ/mol]
      Exch10(S^2)                  55.02639469 [mEh]      34.52958397 [kcal/mol]     144.47177935 [kJ/mol]
      Exch11(S^2)                   0.25908334 [mEh]       0.16257725 [kcal/mol]       0.68022322 [kJ/mol]
      Exch12(S^2)                   6.84081096 [mEh]       4.29267368 [kcal/mol]      17.96054669 [kJ/mol]

    Induction                     -24.54322090 [mEh]     -15.40110363 [kcal/mol]     -64.43821759 [kJ/mol]
      Ind20,r                     -28.13237642 [mEh]     -17.65333273 [kcal/mol]     -73.86154412 [kJ/mol]
      Ind22                        -3.81752774 [mEh]      -2.39553482 [kcal/mol]     -10.02291770 [kJ/mol]
      Exch-Ind20,r                 15.53390108 [mEh]       9.74767009 [kcal/mol]      40.78425167 [kJ/mol]
      Exch-Ind22                    2.10793064 [mEh]       1.32274645 [kcal/mol]       5.53437114 [kJ/mol]
      delta HF,r (2)              -10.23514846 [mEh]      -6.42265262 [kcal/mol]     -26.87237858 [kJ/mol]

    Dispersion                    -16.22345910 [mEh]     -10.18037429 [kcal/mol]     -42.59468601 [kJ/mol]
      Disp20                      -17.81085916 [mEh]     -11.17648286 [kcal/mol]     -46.76240428 [kJ/mol]
      Disp21                        1.40148968 [mEh]       0.87944805 [kcal/mol]       3.67961065 [kJ/mol]
      Disp22 (SDQ)                 -0.23083344 [mEh]      -0.14485017 [kcal/mol]      -0.60605312 [kJ/mol]
      Disp22 (T)                   -2.83894537 [mEh]      -1.78146511 [kcal/mol]      -7.45365003 [kJ/mol]
      Est. Disp22 (T)              -3.24318919 [mEh]      -2.03513194 [kcal/mol]      -8.51499204 [kJ/mol]
      Exch-Disp20                   3.65993301 [mEh]       2.29664263 [kcal/mol]       9.60915278 [kJ/mol]

  Total HF                        -17.66710072 [mEh]     -11.08627308 [kcal/mol]     -46.38496656 [kJ/mol]
  Total SAPT0                     -31.81802688 [mEh]     -19.96611330 [kcal/mol]     -83.53821806 [kJ/mol]
  Total SAPT2                     -25.01946516 [mEh]     -15.69995142 [kcal/mol]     -65.68859673 [kJ/mol]
  Total SAPT2+                    -27.09199811 [mEh]     -17.00048548 [kcal/mol]     -71.13003124 [kJ/mol]

  Special recipe for scaled SAPT0 (see Manual):
    Electrostatics sSAPT0         -50.83555458 [mEh]     -31.89979210 [kcal/mol]    -133.46873016 [kJ/mol]
    Exchange sSAPT0                56.00207766 [mEh]      35.14183428 [kcal/mol]     147.03343463 [kJ/mol]
    Induction sSAPT0              -21.99258263 [mEh]     -13.80055396 [kcal/mol]     -57.74151775 [kJ/mol]
    Dispersion sSAPT0             -13.95276896 [mEh]      -8.75549470 [kcal/mol]     -36.63298985 [kJ/mol]
  Total sSAPT0                    -30.77882851 [mEh]     -19.31400648 [kcal/mol]     -80.80980312 [kJ/mol]
  --------------------------------------------------------------------------------------------------------

*** Psi4 exiting successfully. Buy a developer a beer!
