                               Psi4 1.3.2 release

  ==> Input File <==

--------------------------------------------------------------------------
#psi4
#
memory 32 gb

molecule  {
0 1
  C       -1.9644470     0.1609890    -0.0000020
  H       -3.0589320     0.1627090    -0.0000040
  O       -1.3160380     1.1929960    -0.0000020
  O       -1.4968300    -1.0660630     0.0000020
  H       -0.4778920    -1.0649310     0.0000090
--
0 1
  C        1.8629159    -0.1775729    -0.0000030
  H        2.9447319    -0.2997979    -0.0000050
  N        1.0451249    -1.1749398    -0.0000010
  H        1.5557199    -2.0484449    -0.0000010
  N        1.4480659     1.0992512     0.0000020
  H        0.4520489     1.2977842     0.0000010
  H        2.1149859     1.8439272     0.0000040
units angstrom
no_reorient  #important for SAPT in psi4, default
symmetry c1  #important for SAPT in psi4, default
}

set {
basis aug-cc-pVTZ
scf_type DF
freeze_core True
}
energy('sapt2+')
--------------------------------------------------------------------------

  //              Dimer HF             //
    Molecular point group: c1
  Charge       = 0
  Multiplicity = 1
  Basis Set: AUG-CC-PVTZ
    Blend: AUG-CC-PVTZ
  Basis Set: (AUG-CC-PVTZ AUX)
    Blend: AUG-CC-PVTZ-JKFIT
  @DF-RHF Final Energy:  -338.00571901216989
    Total Energy =                       -338.0057190121698909
  //            Monomer A HF           //
    Molecular point group: c1
  Multiplicity = 1
  Basis Set: AUG-CC-PVTZ
    Blend: AUG-CC-PVTZ
  Basis Set: (AUG-CC-PVTZ AUX)
    Blend: AUG-CC-PVTZ-JKFIT
  @DF-RHF Final Energy:  -188.83872166800199
    Total Energy =                       -188.8387216680019947
  //            Monomer B HF           //
    Molecular point group: c1

    Geometry (in Angstrom), charge = 0, multiplicity = 1:

       Center              X                  Y                   Z               Mass
    ------------   -----------------  -----------------  -----------------  -----------------
      Gh(C)          -1.878495426813     0.153639191967    -0.000001533938    12.000000000000
      Gh(H)          -2.972980426813     0.155359191967    -0.000003533938     1.007825032230
      Gh(O)          -1.230086426813     1.185646191967    -0.000001533938    15.994914619570
      Gh(O)          -1.410878426813    -1.073412808033     0.000002466062    15.994914619570
      Gh(H)          -0.391940426813    -1.072280808033     0.000009466062     1.007825032230
         C            1.948867473187    -0.184922708033    -0.000002533938    12.000000000000
         H            3.030683473187    -0.307147708033    -0.000004533938     1.007825032230
         N            1.131076473187    -1.182289608033    -0.000000533938    14.003074004430
         H            1.641671473187    -2.055794708033    -0.000000533938     1.007825032230
         N            1.534017473187     1.091901391967     0.000002466062    14.003074004430
         H            0.538000473187     1.290434391967     0.000001466062     1.007825032230
         H            2.200937473187     1.836577391967     0.000004466062     1.007825032230

  Charge       = 0
  Multiplicity = 1
  Basis Set: AUG-CC-PVTZ
    Blend: AUG-CC-PVTZ
  Basis Set: (AUG-CC-PVTZ AUX)
    Blend: AUG-CC-PVTZ-JKFIT

    Orbital Energies [Eh]
    ---------------------

    Doubly Occupied:

       1A    -15.580675     2A    -15.518354     3A    -11.313916
       4A     -1.260952     5A     -1.136083     6A     -0.830611
       7A     -0.749113     8A     -0.640564     9A     -0.618116
      10A     -0.530871    11A     -0.417496    12A     -0.358861

  @DF-RHF Final Energy:  -149.14373684532097

   => Energetics <=

    Nuclear Repulsion Energy =             72.3341921335351117
    One-Electron Energy =                -345.0446284616201638
    Two-Electron Energy =                 123.5666994827640934
    Total Energy =                       -149.1437368453209729

  Dipole Moment: [D]
     X:     2.3213      Y:     2.2609      Z:    -0.0000     Total:     3.2404

    SAPT Results
  --------------------------------------------------------------------------------------------------------
    Electrostatics                -70.82092795 [mEh]     -44.44080323 [kcal/mol]    -185.94032072 [kJ/mol]
      Elst10,r                    -72.10783669 [mEh]     -45.24835066 [kcal/mol]    -189.31909914 [kJ/mol]
      Elst12,r                      1.28690874 [mEh]       0.80754743 [kcal/mol]       3.37877843 [kJ/mol]

    Exchange                       99.07161931 [mEh]      62.16837970 [kcal/mol]     260.11250066 [kJ/mol]
      Exch10                       90.81813023 [mEh]      56.98923711 [kcal/mol]     238.44296808 [kJ/mol]
      Exch10(S^2)                  87.72676896 [mEh]      55.04937862 [kcal/mol]     230.32660016 [kJ/mol]
      Exch11(S^2)                   1.11823645 [mEh]       0.70170397 [kcal/mol]       2.93592940 [kJ/mol]
      Exch12(S^2)                   7.13525262 [mEh]       4.47743862 [kcal/mol]      18.73360318 [kJ/mol]

    Induction                     -44.45690723 [mEh]     -27.89713046 [kcal/mol]    -116.72159384 [kJ/mol]
      Ind20,r                     -51.85701320 [mEh]     -32.54076707 [kcal/mol]    -136.15056941 [kJ/mol]
      Ind22                        -5.48375767 [mEh]      -3.44110989 [kcal/mol]     -14.39760377 [kJ/mol]
      Exch-Ind20,r                 28.34713226 [mEh]      17.78809405 [kcal/mol]      74.42538549 [kJ/mol]
      Exch-Ind22                    2.99764283 [mEh]       1.88104928 [kcal/mol]       7.87031017 [kJ/mol]
      delta HF,r (2)              -18.46091145 [mEh]     -11.58439683 [kcal/mol]     -48.46911632 [kJ/mol]

    Dispersion                    -21.32555470 [mEh]     -13.38198761 [kcal/mol]     -55.99023615 [kJ/mol]
      Disp20                      -24.44265356 [mEh]     -15.33799668 [kcal/mol]     -64.17417809 [kJ/mol]
      Disp21                        2.31947992 [mEh]       1.45549562 [kcal/mol]       6.08979369 [kJ/mol]
      Disp22 (SDQ)                 -0.27456906 [mEh]      -0.17229468 [kcal/mol]      -0.72088096 [kJ/mol]
      Disp22 (T)                   -3.84671555 [mEh]      -2.41385045 [kcal/mol]     -10.09955028 [kJ/mol]
      Est. Disp22 (T)              -4.36375763 [mEh]      -2.73829926 [kcal/mol]     -11.45704409 [kJ/mol]
      Exch-Disp20                   5.43594564 [mEh]       3.41110739 [kcal/mol]      14.27207330 [kJ/mol]

  Total HF                        -23.26049885 [mEh]     -14.59618339 [kcal/mol]     -61.07043131 [kJ/mol]
  Total SAPT0                     -42.26720678 [mEh]     -26.52307268 [kcal/mol]    -110.97253610 [kJ/mol]
  Total SAPT2                     -35.21292380 [mEh]     -22.09644328 [kcal/mol]     -92.45151870 [kJ/mol]
  Total SAPT2+                    -37.53177057 [mEh]     -23.55154160 [kcal/mol]     -98.53965005 [kJ/mol]

  Special recipe for scaled SAPT0 (see Manual):
    Electrostatics sSAPT0         -72.10783669 [mEh]     -45.24835066 [kcal/mol]    -189.31909914 [kJ/mol]
    Exchange sSAPT0                90.81813023 [mEh]      56.98923711 [kcal/mol]     238.44296808 [kJ/mol]
    Induction sSAPT0              -38.86721883 [mEh]     -24.38954803 [kcal/mol]    -102.04586898 [kJ/mol]
    Dispersion sSAPT0             -18.41155576 [mEh]     -11.55342567 [kcal/mol]     -48.33953300 [kJ/mol]
  Total sSAPT0                    -38.56848105 [mEh]     -24.20208725 [kcal/mol]    -101.26153304 [kJ/mol]
  --------------------------------------------------------------------------------------------------------

*** Psi4 exiting successfully. Buy a developer a beer!
