                               Psi4 1.3.2 release

  ==> Input File <==

--------------------------------------------------------------------------
#psi4
#
memory 32 gb

molecule  {
0 1
  C        2.1022740    -0.1999910     0.0000010
  H        3.1931760    -0.2048250     0.0000000
  N        1.3929100    -1.2773340     0.0000000
  H        2.0119970    -2.0793170    -0.0000010
  N        1.5658380     1.0343930     0.0000000
  H        0.5512430     1.1716950     0.0000000
  H        2.1722770     1.8295020    -0.0000010
--
0 1
  C       -2.3981488     0.2242851     0.0000000
  H       -3.4890508     0.2291191     0.0000000
  N       -1.6887848     1.3016281     0.0000000
  H       -2.3078718     2.1036111     0.0000000
  N       -1.8617128    -1.0100989     0.0000000
  H       -0.8471178    -1.1474009     0.0000000
  H       -2.4681518    -1.8052079     0.0000000
units angstrom
no_reorient  #important for SAPT in psi4, default
symmetry c1  #important for SAPT in psi4, default
}

set {
basis aug-cc-pVTZ
scf_type DF
freeze_core True
}
energy('sapt2+')
--------------------------------------------------------------------------

  //              Dimer HF             //
    Molecular point group: c1
  Charge       = 0
  Multiplicity = 1
  Basis Set: AUG-CC-PVTZ
    Blend: AUG-CC-PVTZ
  Basis Set: (AUG-CC-PVTZ AUX)
    Blend: AUG-CC-PVTZ-JKFIT
  @DF-RHF Final Energy:  -298.30323180240322
    Total Energy =                       -298.3032318024032179
  //            Monomer A HF           //
    Molecular point group: c1
  Multiplicity = 1
  Basis Set: AUG-CC-PVTZ
    Blend: AUG-CC-PVTZ
  Basis Set: (AUG-CC-PVTZ AUX)
    Blend: AUG-CC-PVTZ-JKFIT
  @DF-RHF Final Energy:  -149.14306255855047
    Total Energy =                       -149.1430625585504686
  //            Monomer B HF           //
    Molecular point group: c1

    Geometry (in Angstrom), charge = 0, multiplicity = 1:

       Center              X                  Y                   Z               Mass
    ------------   -----------------  -----------------  -----------------  -----------------
      Gh(C)           2.250211400000    -0.212138050000     0.000000886638    12.000000000000
      Gh(H)           3.341113400000    -0.216972050000    -0.000000113362     1.007825032230
      Gh(N)           1.540847400000    -1.289481050000    -0.000000113362    14.003074004430
      Gh(H)           2.159934400000    -2.091464050000    -0.000001113362     1.007825032230
      Gh(N)           1.713775400000     1.022245950000    -0.000000113362    14.003074004430
      Gh(H)           0.699180400000     1.159547950000    -0.000000113362     1.007825032230
      Gh(H)           2.320214400000     1.817354950000    -0.000001113362     1.007825032230
         C           -2.250211400000     0.212138050000    -0.000000113362    12.000000000000
         H           -3.341113400000     0.216972050000    -0.000000113362     1.007825032230
         N           -1.540847400000     1.289481050000    -0.000000113362    14.003074004430
         H           -2.159934400000     2.091464050000    -0.000000113362     1.007825032230
         N           -1.713775400000    -1.022245950000    -0.000000113362    14.003074004430
         H           -0.699180400000    -1.159547950000    -0.000000113362     1.007825032230
         H           -2.320214400000    -1.817354950000    -0.000000113362     1.007825032230

  Charge       = 0
  Multiplicity = 1
  Basis Set: AUG-CC-PVTZ
    Blend: AUG-CC-PVTZ
  Basis Set: (AUG-CC-PVTZ AUX)
    Blend: AUG-CC-PVTZ-JKFIT

    Orbital Energies [Eh]
    ---------------------

    Doubly Occupied:

       1A    -15.581662     2A    -15.519541     3A    -11.314766
       4A     -1.259005     5A     -1.137053     6A     -0.829943
       7A     -0.745817     8A     -0.639654     9A     -0.615827
      10A     -0.530070    11A     -0.419647    12A     -0.359462

  @DF-RHF Final Energy:  -149.14306255870329

   => Energetics <=

    Nuclear Repulsion Energy =             72.1807086195704102
    One-Electron Energy =                -344.7426429313320000
    Two-Electron Energy =                 123.4188717530583261
    Total Energy =                       -149.1430625587032637

  Dipole Moment: [D]
     X:    -2.0905      Y:    -2.5220      Z:     0.0000     Total:     3.2758

    SAPT Results
  --------------------------------------------------------------------------------------------------------
    Electrostatics                -25.09582313 [mEh]     -15.74786676 [kcal/mol]     -65.88907454 [kJ/mol]
      Elst10,r                    -25.38749040 [mEh]     -15.93089074 [kcal/mol]     -66.65484687 [kJ/mol]
      Elst12,r                      0.29166727 [mEh]       0.18302398 [kcal/mol]       0.76577232 [kJ/mol]

    Exchange                       18.43384902 [mEh]      11.56741490 [kcal/mol]      48.39806392 [kJ/mol]
      Exch10                       16.11680705 [mEh]      10.11344911 [kcal/mol]      42.31467108 [kJ/mol]
      Exch10(S^2)                  16.00736659 [mEh]      10.04477418 [kcal/mol]      42.02733518 [kJ/mol]
      Exch11(S^2)                   0.14011909 [mEh]       0.08792606 [kcal/mol]       0.36788261 [kJ/mol]
      Exch12(S^2)                   2.17692288 [mEh]       1.36603973 [kcal/mol]       5.71551023 [kJ/mol]

    Induction                      -8.37341694 [mEh]      -5.25439846 [kcal/mol]     -21.98440314 [kJ/mol]
      Ind20,r                      -9.08522970 [mEh]      -5.70106771 [kcal/mol]     -23.85326729 [kJ/mol]
      Ind22                        -0.98180639 [mEh]      -0.61609281 [kcal/mol]      -2.57773232 [kJ/mol]
      Exch-Ind20,r                  4.11221257 [mEh]       2.58045235 [kcal/mol]      10.79661262 [kJ/mol]
      Exch-Ind22                    0.44439125 [mEh]       0.27885972 [kcal/mol]       1.16674907 [kJ/mol]
      delta HF,r (2)               -2.86298467 [mEh]      -1.79655000 [kcal/mol]      -7.51676521 [kJ/mol]

    Dispersion                     -8.15861700 [mEh]      -5.11960946 [kcal/mol]     -21.42044599 [kJ/mol]
      Disp20                       -8.51736393 [mEh]      -5.34472655 [kcal/mol]     -22.36233591 [kJ/mol]
      Disp21                        0.47753288 [mEh]       0.29965641 [kcal/mol]       1.25376241 [kJ/mol]
      Disp22 (SDQ)                  0.10389144 [mEh]       0.06519286 [kcal/mol]       0.27276693 [kJ/mol]
      Disp22 (T)                   -1.39859742 [mEh]      -0.87763313 [kcal/mol]      -3.67201703 [kJ/mol]
      Est. Disp22 (T)              -1.60043027 [mEh]      -1.00428516 [kcal/mol]      -4.20192910 [kJ/mol]
      Exch-Disp20                   1.37775288 [mEh]       0.86455298 [kcal/mol]       3.61728968 [kJ/mol]

  Total HF                        -17.10668515 [mEh]     -10.73460700 [kcal/mol]     -44.91359567 [kJ/mol]
  Total SAPT0                     -24.24629620 [mEh]     -15.21478057 [kcal/mol]     -63.65864190 [kJ/mol]
  Total SAPT2                     -22.17500210 [mEh]     -13.91502390 [kcal/mol]     -58.22045999 [kJ/mol]
  Total SAPT2+                    -23.19400805 [mEh]     -14.55445979 [kcal/mol]     -60.89585975 [kJ/mol]

  Special recipe for scaled SAPT0 (see Manual):
    Electrostatics sSAPT0         -25.38749040 [mEh]     -15.93089074 [kcal/mol]     -66.65484687 [kJ/mol]
    Exchange sSAPT0                16.11680705 [mEh]      10.11344911 [kcal/mol]      42.31467108 [kJ/mol]
    Induction sSAPT0               -7.75107971 [mEh]      -4.86387595 [kcal/mol]     -20.35045696 [kJ/mol]
    Dispersion sSAPT0              -7.11115881 [mEh]      -4.46231952 [kcal/mol]     -18.67034488 [kJ/mol]
  Total sSAPT0                    -24.13292187 [mEh]     -15.14363710 [kcal/mol]     -63.36097763 [kJ/mol]
  --------------------------------------------------------------------------------------------------------

*** Psi4 exiting successfully. Buy a developer a beer!
