                               Psi4 1.3.2 release

  ==> Input File <==

--------------------------------------------------------------------------
#psi4
#
memory 32 gb

molecule  {
0 1
  C       -1.9521150     0.2323370    -0.0000010
  H       -3.0450720     0.2485030     0.0000010
  O       -1.2823360     1.2482650     0.0000000
  O       -1.5045270    -1.0066940    -0.0000010
  H       -0.5061810    -1.0124010    -0.0000010
--
0 1
  C        1.6758114    -0.2273840     0.0000029
  H        2.7585074    -0.3994100    -0.0000011
  O        0.8864224    -1.1705170    -0.0000001
  N        1.3309784     1.0657680     0.0000009
  H        0.3455734     1.3170880    -0.0000001
  H        2.0411924     1.7726480    -0.0000011
units angstrom
no_reorient  #important for SAPT in psi4, default
symmetry c1  #important for SAPT in psi4, default
}

set {
basis aug-cc-pVTZ
scf_type DF
freeze_core True
}
energy('sapt2+')
--------------------------------------------------------------------------

  //              Dimer HF             //
    Molecular point group: c1
  Charge       = 0
  Multiplicity = 1
  Basis Set: AUG-CC-PVTZ
    Blend: AUG-CC-PVTZ
  Basis Set: (AUG-CC-PVTZ AUX)
    Blend: AUG-CC-PVTZ-JKFIT
  @DF-RHF Final Energy:  -357.85729180692857
    Total Energy =                       -357.8572918069285720
  //            Monomer A HF           //
    Molecular point group: c1
  Multiplicity = 1
  Basis Set: AUG-CC-PVTZ
    Blend: AUG-CC-PVTZ
  Basis Set: (AUG-CC-PVTZ AUX)
    Blend: AUG-CC-PVTZ-JKFIT
  @DF-RHF Final Energy:  -188.84130926448782
    Total Energy =                       -188.8413092644878191
  //            Monomer B HF           //
    Molecular point group: c1

    Geometry (in Angstrom), charge = 0, multiplicity = 1:

       Center              X                  Y                   Z               Mass
    ------------   -----------------  -----------------  -----------------  -----------------
      Gh(C)          -1.804150612796     0.209634330747    -0.000001170173    12.000000000000
      Gh(H)          -2.897107612796     0.225800330747     0.000000829827     1.007825032230
      Gh(O)          -1.134371612796     1.225562330747    -0.000000170173    15.994914619570
      Gh(O)          -1.356562612796    -1.029396669253    -0.000001170173    15.994914619570
      Gh(H)          -0.358216612796    -1.035103669253    -0.000001170173     1.007825032230
         C            1.823775787204    -0.250086669253     0.000002729827    12.000000000000
         H            2.906471787204    -0.422112669253    -0.000001270173     1.007825032230
         O            1.034386787204    -1.193219669253    -0.000000270173    15.994914619570
         N            1.478942787204     1.043065330747     0.000000729827    14.003074004430
         H            0.493537787204     1.294385330747    -0.000000270173     1.007825032230
         H            2.189156787204     1.749945330747    -0.000001270173     1.007825032230

  Charge       = 0
  Multiplicity = 1
  Basis Set: AUG-CC-PVTZ
    Blend: AUG-CC-PVTZ
  Basis Set: (AUG-CC-PVTZ AUX)
    Blend: AUG-CC-PVTZ-JKFIT

    Orbital Energies [Eh]
    ---------------------

    Doubly Occupied:

       1A    -20.526071     2A    -15.602144     3A    -11.355924
       4A     -1.375691     5A     -1.228477     6A     -0.855256
       7A     -0.758892     8A     -0.677464     9A     -0.602294
      10A     -0.572007    11A     -0.434831    12A     -0.421721

  @DF-RHF Final Energy:  -169.00333423502471

   => Energetics <=

    Nuclear Repulsion Energy =             71.2263167891489104
    One-Electron Energy =                -371.6377574899930778
    Two-Electron Energy =                 131.4081064658194862
    Total Energy =                       -169.0033342350247096

  Dipole Moment: [D]
     X:     1.8675      Y:     4.0719      Z:    -0.0000     Total:     4.4798

    SAPT Results
  --------------------------------------------------------------------------------------------------------
    Electrostatics                -75.92479413 [mEh]     -47.64352761 [kcal/mol]    -199.34051953 [kJ/mol]
      Elst10,r                    -77.74977683 [mEh]     -48.78872155 [kcal/mol]    -204.13201095 [kJ/mol]
      Elst12,r                      1.82498270 [mEh]       1.14519394 [kcal/mol]       4.79149142 [kJ/mol]

    Exchange                      124.54466365 [mEh]      78.15295635 [kcal/mol]     326.99196936 [kJ/mol]
      Exch10                      113.00771206 [mEh]      70.91340993 [kcal/mol]     296.70170713 [kJ/mol]
      Exch10(S^2)                 109.30724789 [mEh]      68.59133360 [kcal/mol]     286.98613980 [kJ/mol]
      Exch11(S^2)                   0.50125651 [mEh]       0.31454321 [kcal/mol]       1.31604879 [kJ/mol]
      Exch12(S^2)                  11.03569508 [mEh]       6.92500321 [kcal/mol]      28.97421344 [kJ/mol]

    Induction                     -51.52994242 [mEh]     -32.33552705 [kcal/mol]    -135.29184518 [kJ/mol]
      Ind20,r                     -62.19779684 [mEh]     -39.02970677 [kcal/mol]    -163.30029312 [kJ/mol]
      Ind22                        -8.52599633 [mEh]      -5.35014347 [kcal/mol]     -22.38500029 [kJ/mol]
      Exch-Ind20,r                 35.76262920 [mEh]      22.44138863 [kcal/mol]      93.89477003 [kJ/mol]
      Exch-Ind22                    4.90229656 [mEh]       3.07623753 [kcal/mol]      12.87097784 [kJ/mol]
      delta HF,r (2)              -21.47107500 [mEh]     -13.47330297 [kcal/mol]     -56.37229964 [kJ/mol]

    Dispersion                    -24.14589288 [mEh]     -15.15177653 [kcal/mol]     -63.39503301 [kJ/mol]
      Disp20                      -27.60626144 [mEh]     -17.32319059 [kcal/mol]     -72.48022942 [kJ/mol]
      Disp21                        2.81650785 [mEh]       1.76738536 [kcal/mol]       7.39474035 [kJ/mol]
      Disp22 (SDQ)                 -0.73621939 [mEh]      -0.46198464 [kcal/mol]      -1.93294374 [kJ/mol]
      Disp22 (T)                   -4.34213925 [mEh]      -2.72473351 [kcal/mol]     -11.40028502 [kJ/mol]
      Est. Disp22 (T)              -4.90861717 [mEh]      -3.08020378 [kcal/mol]     -12.88757260 [kJ/mol]
      Exch-Disp20                   6.28869727 [mEh]       3.94621711 [kcal/mol]      16.51097240 [kJ/mol]

  Total HF                        -12.64830742 [mEh]      -7.93693273 [kcal/mol]     -33.20812655 [kJ/mol]
  Total SAPT0                     -33.96587159 [mEh]     -21.31390620 [kcal/mol]     -89.17738356 [kJ/mol]
  Total SAPT2                     -24.22763707 [mEh]     -15.20307179 [kcal/mol]     -63.60965236 [kJ/mol]
  Total SAPT2+                    -27.05596578 [mEh]     -16.97787485 [kcal/mol]     -71.03542836 [kJ/mol]

  Special recipe for scaled SAPT0 (see Manual):
    Electrostatics sSAPT0         -77.74977683 [mEh]     -48.78872155 [kcal/mol]    -204.13201095 [kJ/mol]
    Exchange sSAPT0               113.00771206 [mEh]      70.91340993 [kcal/mol]     296.70170713 [kJ/mol]
    Induction sSAPT0              -44.14979353 [mEh]     -27.70441371 [kcal/mol]    -115.91526695 [kJ/mol]
    Dispersion sSAPT0             -20.65700951 [mEh]     -12.96246917 [kcal/mol]     -54.23497100 [kJ/mol]
  Total sSAPT0                    -29.54886782 [mEh]     -18.54219450 [kcal/mol]     -77.58054177 [kJ/mol]
  --------------------------------------------------------------------------------------------------------

*** Psi4 exiting successfully. Buy a developer a beer!
