                               Psi4 1.3.2 release

  ==> Input File <==

--------------------------------------------------------------------------
#psi4
#
memory 32 gb

molecule  {
0 1
  C       -1.9644470     0.1609890    -0.0000020
  H       -3.0589320     0.1627090    -0.0000040
  O       -1.3160380     1.1929960    -0.0000020
  O       -1.4968300    -1.0660630     0.0000020
  H       -0.4778920    -1.0649310     0.0000090
--
0 1
  C        1.4440165    -0.1615764    -0.0000031
  H        2.5258325    -0.2838014    -0.0000051
  N        0.6262255    -1.1589434    -0.0000011
  H        1.1368205    -2.0324484    -0.0000011
  N        1.0291665     1.1152476     0.0000019
  H        0.0331495     1.3137806     0.0000009
  H        1.6960865     1.8599236     0.0000039
units angstrom
no_reorient  #important for SAPT in psi4, default
symmetry c1  #important for SAPT in psi4, default
}

set {
basis aug-cc-pVTZ
scf_type DF
freeze_core True
}
energy('sapt2+')
--------------------------------------------------------------------------

  //              Dimer HF             //
    Molecular point group: c1
  Charge       = 0
  Multiplicity = 1
  Basis Set: AUG-CC-PVTZ
    Blend: AUG-CC-PVTZ
  Basis Set: (AUG-CC-PVTZ AUX)
    Blend: AUG-CC-PVTZ-JKFIT
  @DF-RHF Final Energy:  -337.93817898647688
    Total Energy =                       -337.9381789864768848
  //            Monomer A HF           //
    Molecular point group: c1
  Multiplicity = 1
  Basis Set: AUG-CC-PVTZ
    Blend: AUG-CC-PVTZ
  Basis Set: (AUG-CC-PVTZ AUX)
    Blend: AUG-CC-PVTZ-JKFIT
  @DF-RHF Final Energy:  -188.83885411406430
    Total Energy =                       -188.8388541140643042
  //            Monomer B HF           //
    Molecular point group: c1

    Geometry (in Angstrom), charge = 0, multiplicity = 1:

       Center              X                  Y                   Z               Mass
    ------------   -----------------  -----------------  -----------------  -----------------
      Gh(C)          -1.673623582609     0.145815789763    -0.000001485030    12.000000000000
      Gh(H)          -2.768108582609     0.147535789763    -0.000003485030     1.007825032230
      Gh(O)          -1.025214582609     1.177822789763    -0.000001485030    15.994914619570
      Gh(O)          -1.206006582609    -1.081236210237     0.000002514970    15.994914619570
      Gh(H)          -0.187068582609    -1.080104210237     0.000009514970     1.007825032230
         C            1.734839917391    -0.176749610237    -0.000002585030    12.000000000000
         H            2.816655917391    -0.298974610237    -0.000004585030     1.007825032230
         N            0.917048917391    -1.174116610237    -0.000000585030    14.003074004430
         H            1.427643917391    -2.047621610237    -0.000000585030     1.007825032230
         N            1.319989917391     1.100074389763     0.000002414970    14.003074004430
         H            0.323972917391     1.298607389763     0.000001414970     1.007825032230
         H            1.986909917391     1.844750389763     0.000004414970     1.007825032230

  Charge       = 0
  Multiplicity = 1
  Basis Set: AUG-CC-PVTZ
    Blend: AUG-CC-PVTZ
  Basis Set: (AUG-CC-PVTZ AUX)
    Blend: AUG-CC-PVTZ-JKFIT

    Orbital Energies [Eh]
    ---------------------

    Doubly Occupied:

       1A    -15.580654     2A    -15.518244     3A    -11.313908
       4A     -1.260936     5A     -1.136062     6A     -0.830600
       7A     -0.749102     8A     -0.640556     9A     -0.618102
      10A     -0.530867    11A     -0.417493    12A     -0.358861

  @DF-RHF Final Energy:  -149.14384054038172

   => Energetics <=

    Nuclear Repulsion Energy =             72.3341927987139997
    One-Electron Energy =                -345.0452920176027192
    Two-Electron Energy =                 123.5672586785069882
    Total Energy =                       -149.1438405403817171

  Dipole Moment: [D]
     X:     2.3207      Y:     2.2608      Z:    -0.0000     Total:     3.2399

    SAPT Results
  --------------------------------------------------------------------------------------------------------
    Electrostatics               -155.04379881 [mEh]     -97.29145261 [kcal/mol]    -407.06743771 [kJ/mol]
      Elst10,r                   -155.63356328 [mEh]     -97.66153540 [kcal/mol]    -408.61586411 [kJ/mol]
      Elst12,r                      0.58976447 [mEh]       0.37008279 [kcal/mol]       1.54842640 [kJ/mol]

    Exchange                      354.15291505 [mEh]     222.23430936 [kcal/mol]     929.82835035 [kJ/mol]
      Exch10                      341.94502594 [mEh]     214.57374329 [kcal/mol]     897.77654193 [kJ/mol]
      Exch10(S^2)                 308.96864015 [mEh]     193.88074880 [kcal/mol]     811.19705296 [kJ/mol]
      Exch11(S^2)                   2.08622277 [mEh]       1.30912455 [kcal/mol]       5.47737713 [kJ/mol]
      Exch12(S^2)                  10.12166633 [mEh]       6.35144151 [kcal/mol]      26.57443129 [kJ/mol]

    Induction                    -151.05718483 [mEh]     -94.78981456 [kcal/mol]    -396.60058414 [kJ/mol]
      Ind20,r                    -209.72270330 [mEh]    -131.60298319 [kcal/mol]    -550.62688166 [kJ/mol]
      Ind22                       -19.85162117 [mEh]     -12.45708035 [kcal/mol]     -52.12042419 [kJ/mol]
      Exch-Ind20,r                111.88062983 [mEh]      70.20615515 [kcal/mol]     293.74255314 [kJ/mol]
      Exch-Ind22                   10.59023102 [mEh]       6.64547030 [kcal/mol]      27.80464772 [kJ/mol]
      delta HF,r (2)              -43.95372122 [mEh]     -27.58137647 [kcal/mol]    -115.40047915 [kJ/mol]

    Dispersion                    -50.36463679 [mEh]     -31.60428673 [kcal/mol]    -132.23233568 [kJ/mol]
      Disp20                      -62.07743987 [mEh]     -38.95418162 [kcal/mol]    -162.98429591 [kJ/mol]
      Disp21                        8.90254818 [mEh]       5.58643332 [kcal/mol]      23.37363703 [kJ/mol]
      Disp22 (SDQ)                 -0.95964705 [mEh]      -0.60218762 [kcal/mol]      -2.51955299 [kJ/mol]
      Disp22 (T)                   -8.95852202 [mEh]      -5.62155744 [kcal/mol]     -23.52059631 [kJ/mol]
      Est. Disp22 (T)              -9.77276288 [mEh]      -6.13250130 [kcal/mol]     -25.65838542 [kJ/mol]
      Exch-Disp20                  13.54266483 [mEh]       8.49815048 [kcal/mol]      35.55626162 [kJ/mol]

  Total HF                         44.51566797 [mEh]      27.93400338 [kcal/mol]     116.87587015 [kJ/mol]
  Total SAPT0                      -4.01910706 [mEh]      -2.52202776 [kcal/mol]     -10.55216414 [kJ/mol]
  Total SAPT2                      -0.48284363 [mEh]      -0.30298895 [kcal/mol]      -1.26770578 [kJ/mol]
  Total SAPT2+                     -2.31270539 [mEh]      -1.45124454 [kcal/mol]      -6.07200717 [kJ/mol]

  Special recipe for scaled SAPT0 (see Manual):
    Electrostatics sSAPT0        -155.63356328 [mEh]     -97.66153540 [kcal/mol]    -408.61586411 [kJ/mol]
    Exchange sSAPT0               341.94502594 [mEh]     214.57374329 [kcal/mol]     897.77654193 [kJ/mol]
    Induction sSAPT0             -102.01310044 [mEh]     -64.01418698 [kcal/mol]    -267.83535831 [kJ/mol]
    Dispersion sSAPT0             -43.71925250 [mEh]     -27.43424513 [kcal/mol]    -114.78488162 [kJ/mol]
  Total sSAPT0                     40.57910972 [mEh]      25.46377579 [kcal/mol]     106.54043789 [kJ/mol]
  --------------------------------------------------------------------------------------------------------

*** Psi4 exiting successfully. Buy a developer a beer!
