                               Psi4 1.3.2 release

  ==> Input File <==

--------------------------------------------------------------------------
#psi4
#
memory 32 gb

molecule  {
0 1
  C       -1.9521150     0.2323370    -0.0000010
  H       -3.0450720     0.2485030     0.0000010
  O       -1.2823360     1.2482650     0.0000000
  O       -1.5045270    -1.0066940    -0.0000010
  H       -0.5061810    -1.0124010    -0.0000010
--
0 1
  C        2.2318407    -0.2658640     0.0000031
  H        3.3145367    -0.4378900    -0.0000009
  O        1.4424517    -1.2089970     0.0000001
  N        1.8870077     1.0272880     0.0000011
  H        0.9016027     1.2786080     0.0000001
  H        2.5972217     1.7341680    -0.0000009
units angstrom
no_reorient  #important for SAPT in psi4, default
symmetry c1  #important for SAPT in psi4, default
}

set {
basis aug-cc-pVTZ
scf_type DF
freeze_core True
}
energy('sapt2+')
--------------------------------------------------------------------------

  //              Dimer HF             //
    Molecular point group: c1
  Charge       = 0
  Multiplicity = 1
  Basis Set: AUG-CC-PVTZ
    Blend: AUG-CC-PVTZ
  Basis Set: (AUG-CC-PVTZ AUX)
    Blend: AUG-CC-PVTZ-JKFIT
  @DF-RHF Final Energy:  -357.86599906945992
    Total Energy =                       -357.8659990694599173
  //            Monomer A HF           //
    Molecular point group: c1
  Multiplicity = 1
  Basis Set: AUG-CC-PVTZ
    Blend: AUG-CC-PVTZ
  Basis Set: (AUG-CC-PVTZ AUX)
    Blend: AUG-CC-PVTZ-JKFIT
  @DF-RHF Final Energy:  -188.84114935713194
    Total Energy =                       -188.8411493571319397
  //            Monomer B HF           //
    Molecular point group: c1

    Geometry (in Angstrom), charge = 0, multiplicity = 1:

       Center              X                  Y                   Z               Mass
    ------------   -----------------  -----------------  -----------------  -----------------
      Gh(C)          -2.079159880667     0.228666343319    -0.000001269092    12.000000000000
      Gh(H)          -3.172116880667     0.244832343319     0.000000730908     1.007825032230
      Gh(O)          -1.409380880667     1.244594343319    -0.000000269092    15.994914619570
      Gh(O)          -1.631571880667    -1.010364656681    -0.000001269092    15.994914619570
      Gh(H)          -0.633225880667    -1.016071656681    -0.000001269092     1.007825032230
         C            2.104795819333    -0.269534656681     0.000002830908    12.000000000000
         H            3.187491819333    -0.441560656681    -0.000001169092     1.007825032230
         O            1.315406819333    -1.212667656681    -0.000000169092    15.994914619570
         N            1.759962819333     1.023617343319     0.000000830908    14.003074004430
         H            0.774557819333     1.274937343319    -0.000000169092     1.007825032230
         H            2.470176819333     1.730497343319    -0.000001169092     1.007825032230

  Charge       = 0
  Multiplicity = 1
  Basis Set: AUG-CC-PVTZ
    Blend: AUG-CC-PVTZ
  Basis Set: (AUG-CC-PVTZ AUX)
    Blend: AUG-CC-PVTZ-JKFIT

    Orbital Energies [Eh]
    ---------------------

    Doubly Occupied:

       1A    -20.526115     2A    -15.602166     3A    -11.355942
       4A     -1.375715     5A     -1.228500     6A     -0.855270
       7A     -0.758907     8A     -0.677472     9A     -0.602307
      10A     -0.572024    11A     -0.434837    12A     -0.421740

  @DF-RHF Final Energy:  -169.00321240514600

   => Energetics <=

    Nuclear Repulsion Energy =             71.2263167891488820
    One-Electron Energy =                -371.6370652615140671
    Two-Electron Energy =                 131.4075360672191835
    Total Energy =                       -169.0032124051460016

  Dipole Moment: [D]
     X:     1.8683      Y:     4.0723      Z:    -0.0000     Total:     4.4804

    SAPT Results
  --------------------------------------------------------------------------------------------------------
    Electrostatics                -26.75716814 [mEh]     -16.79037650 [kcal/mol]     -70.25093526 [kJ/mol]
      Elst10,r                    -28.73321098 [mEh]     -18.03036210 [kcal/mol]     -75.43903502 [kJ/mol]
      Elst12,r                      1.97604284 [mEh]       1.23998560 [kcal/mol]       5.18809976 [kJ/mol]

    Exchange                       19.61936510 [mEh]      12.31133747 [kcal/mol]      51.51063597 [kJ/mol]
      Exch10                       16.30510034 [mEh]      10.23160493 [kcal/mol]      42.80903504 [kJ/mol]
      Exch10(S^2)                  16.19629110 [mEh]      10.16332611 [kcal/mol]      42.52335643 [kJ/mol]
      Exch11(S^2)                   0.05908612 [mEh]       0.03707710 [kcal/mol]       0.15513058 [kJ/mol]
      Exch12(S^2)                   3.25517864 [mEh]       2.04265544 [kcal/mol]       8.54647035 [kJ/mol]

    Induction                     -10.03952163 [mEh]      -6.29989494 [kcal/mol]     -26.35876041 [kJ/mol]
      Ind20,r                     -10.32051092 [mEh]      -6.47621838 [kcal/mol]     -27.09649770 [kJ/mol]
      Ind22                        -1.45942483 [mEh]      -0.91580291 [kcal/mol]      -3.83171936 [kJ/mol]
      Exch-Ind20,r                  4.44875996 [mEh]       2.79163902 [kcal/mol]      11.68021766 [kJ/mol]
      Exch-Ind22                    0.62909974 [mEh]       0.39476605 [kcal/mol]       1.65170114 [kJ/mol]
      delta HF,r (2)               -3.33744558 [mEh]      -2.09427872 [kcal/mol]      -8.76246216 [kJ/mol]

    Dispersion                     -8.18955246 [mEh]      -5.13902175 [kcal/mol]     -21.50166701 [kJ/mol]
      Disp20                       -8.06301526 [mEh]      -5.05961846 [kcal/mol]     -21.16944366 [kJ/mol]
      Disp21                        0.52049118 [mEh]       0.32661315 [kcal/mol]       1.36654940 [kJ/mol]
      Disp22 (SDQ)                 -0.24678130 [mEh]      -0.15485760 [kcal/mol]      -0.64792421 [kJ/mol]
      Disp22 (T)                   -1.43744410 [mEh]      -0.90200979 [kcal/mol]      -3.77400896 [kJ/mol]
      Est. Disp22 (T)              -1.64027763 [mEh]      -1.02928975 [kcal/mol]      -4.30654831 [kJ/mol]
      Exch-Disp20                   1.24003055 [mEh]       0.77813092 [kcal/mol]       3.25569976 [kJ/mol]

  Total HF                        -21.63730718 [mEh]     -13.57761524 [kcal/mol]     -56.80874218 [kJ/mol]
  Total SAPT0                     -28.46029189 [mEh]     -17.85910279 [kcal/mol]     -74.72248607 [kJ/mol]
  Total SAPT2                     -24.00030938 [mEh]     -15.06042151 [kcal/mol]     -63.01280359 [kJ/mol]
  Total SAPT2+                    -25.36687712 [mEh]     -15.91795571 [kcal/mol]     -66.60072671 [kJ/mol]

  Special recipe for scaled SAPT0 (see Manual):
    Electrostatics sSAPT0         -28.73321098 [mEh]     -18.03036210 [kcal/mol]     -75.43903502 [kJ/mol]
    Exchange sSAPT0                16.30510034 [mEh]      10.23160493 [kcal/mol]      42.80903504 [kJ/mol]
    Induction sSAPT0               -9.11893042 [mEh]      -5.72221523 [kcal/mol]     -23.94174851 [kJ/mol]
    Dispersion sSAPT0              -6.79782427 [mEh]      -4.26569913 [kcal/mol]     -17.84768517 [kJ/mol]
  Total sSAPT0                    -28.34486533 [mEh]     -17.78667153 [kcal/mol]     -74.41943367 [kJ/mol]
  --------------------------------------------------------------------------------------------------------

*** Psi4 exiting successfully. Buy a developer a beer!
