                               Psi4 1.3.2 release

  ==> Input File <==

--------------------------------------------------------------------------
#psi4
#
memory 32 gb

molecule  {
0 1
  C       -2.0482690     0.2828850     0.0000130
  H       -3.1457830     0.3491130    -0.0000080
  O       -1.3512910     1.2933720    -0.0000010
  N       -1.5923150    -0.9782630     0.0000040
  H       -0.5837530    -1.1752650     0.0000030
  H       -2.2528990    -1.7321960    -0.0000070
--
0 1
  C        1.4797339    -0.1911630     0.0000041
  H        2.5696459    -0.2174310     0.0000001
  N        0.7478279    -1.2528220     0.0000021
  H        1.3475929    -2.0691410    -0.0000039
  N        0.9675589     1.0537790     0.0000001
  H       -0.0390811     1.2037550    -0.0000009
  H        1.5834459     1.8413320    -0.0000049
units angstrom
no_reorient  #important for SAPT in psi4, default
symmetry c1  #important for SAPT in psi4, default
}

set {
basis aug-cc-pVTZ
scf_type DF
freeze_core True
}
energy('sapt2+')
--------------------------------------------------------------------------

  //              Dimer HF             //
    Molecular point group: c1
  Charge       = 0
  Multiplicity = 1
  Basis Set: AUG-CC-PVTZ
    Blend: AUG-CC-PVTZ
  Basis Set: (AUG-CC-PVTZ AUX)
    Blend: AUG-CC-PVTZ-JKFIT
  @DF-RHF Final Energy:  -318.10960003232867
    Total Energy =                       -318.1096000323286717
  //            Monomer A HF           //
    Molecular point group: c1
  Multiplicity = 1
  Basis Set: AUG-CC-PVTZ
    Blend: AUG-CC-PVTZ
  Basis Set: (AUG-CC-PVTZ AUX)
    Blend: AUG-CC-PVTZ-JKFIT
  @DF-RHF Final Energy:  -169.00295719001005
    Total Energy =                       -169.0029571900100507
  //            Monomer B HF           //
    Molecular point group: c1

    Geometry (in Angstrom), charge = 0, multiplicity = 1:

       Center              X                  Y                   Z               Mass
    ------------   -----------------  -----------------  -----------------  -----------------
      Gh(C)          -1.742429548315     0.243717455243     0.000010145091    12.000000000000
      Gh(H)          -2.839943548315     0.309945455243    -0.000010854909     1.007825032230
      Gh(O)          -1.045451548315     1.254204455243    -0.000003854909    15.994914619570
      Gh(N)          -1.286475548315    -1.017430544757     0.000001145091    14.003074004430
      Gh(H)          -0.277913548315    -1.214432544757     0.000000145091     1.007825032230
      Gh(H)          -1.947059548315    -1.771363544757    -0.000009854909     1.007825032230
         C            1.785573351685    -0.230330544757     0.000001245091    12.000000000000
         H            2.875485351685    -0.256598544757    -0.000002754909     1.007825032230
         N            1.053667351685    -1.291989544757    -0.000000754909    14.003074004430
         H            1.653432351685    -2.108308544757    -0.000006754909     1.007825032230
         N            1.273398351685     1.014611455243    -0.000002754909    14.003074004430
         H            0.266758351685     1.164587455243    -0.000003754909     1.007825032230
         H            1.889285351685     1.802164455243    -0.000007754909     1.007825032230

  Charge       = 0
  Multiplicity = 1
  Basis Set: AUG-CC-PVTZ
    Blend: AUG-CC-PVTZ
  Basis Set: (AUG-CC-PVTZ AUX)
    Blend: AUG-CC-PVTZ-JKFIT

    Orbital Energies [Eh]
    ---------------------

    Doubly Occupied:

       1A    -15.580915     2A    -15.519577     3A    -11.314715
       4A     -1.259437     5A     -1.137340     6A     -0.830832
       7A     -0.746496     8A     -0.640060     9A     -0.616566
      10A     -0.530111    11A     -0.419644    12A     -0.359596

  @DF-RHF Final Energy:  -149.14365768903693

   => Energetics <=

    Nuclear Repulsion Energy =             72.2208400742530472
    One-Electron Energy =                -344.8184136638782888
    Two-Electron Energy =                 123.4539159005883278
    Total Energy =                       -149.1436576890369281

  Dipole Moment: [D]
     X:     2.1426      Y:     2.4666      Z:    -0.0000     Total:     3.2672

    SAPT Results
  --------------------------------------------------------------------------------------------------------
    Electrostatics               -130.86475304 [mEh]     -82.11887231 [kcal/mol]    -343.58536176 [kJ/mol]
      Elst10,r                   -131.56252738 [mEh]     -82.55673232 [kcal/mol]    -345.41736804 [kJ/mol]
      Elst12,r                      0.69777434 [mEh]       0.43786001 [kcal/mol]       1.83200628 [kJ/mol]

    Exchange                      271.66115941 [mEh]     170.46995119 [kcal/mol]     713.24627577 [kJ/mol]
      Exch10                      261.00373873 [mEh]     163.78231875 [kcal/mol]     685.26522164 [kJ/mol]
      Exch10(S^2)                 242.77591158 [mEh]     152.34418452 [kcal/mol]     637.40806803 [kJ/mol]
      Exch11(S^2)                   2.44835271 [mEh]       1.53636452 [kcal/mol]       6.42814914 [kJ/mol]
      Exch12(S^2)                   8.20906797 [mEh]       5.15126792 [kcal/mol]      21.55290499 [kJ/mol]

    Induction                     -97.71449397 [mEh]     -61.31677069 [kcal/mol]    -256.54936858 [kJ/mol]
      Ind20,r                    -134.77384647 [mEh]     -84.57186548 [kcal/mol]    -353.84868516 [kJ/mol]
      Ind22                       -12.68582285 [mEh]      -7.96047402 [kcal/mol]     -33.30662331 [kJ/mol]
      Exch-Ind20,r                 78.59290027 [mEh]      49.31778949 [kcal/mol]     206.34563124 [kJ/mol]
      Exch-Ind22                    7.39769352 [mEh]       4.64212277 [kcal/mol]      19.42264165 [kJ/mol]
      delta HF,r (2)              -36.24541844 [mEh]     -22.74434345 [kcal/mol]     -95.16233300 [kJ/mol]

    Dispersion                    -41.43060644 [mEh]     -25.99809804 [kcal/mol]    -108.77604222 [kJ/mol]
      Disp20                      -51.53123468 [mEh]     -32.33633796 [kcal/mol]    -135.29523800 [kJ/mol]
      Disp21                        6.27066236 [mEh]       3.93490004 [kcal/mol]      16.46362175 [kJ/mol]
      Disp22 (SDQ)                 -0.01170441 [mEh]      -0.00734463 [kcal/mol]      -0.03072993 [kJ/mol]
      Disp22 (T)                   -7.21144215 [mEh]      -4.52524827 [kcal/mol]     -18.93363876 [kJ/mol]
      Est. Disp22 (T)              -7.94338176 [mEh]      -4.98454731 [kcal/mol]     -20.85534594 [kJ/mol]
      Exch-Disp20                  11.78505205 [mEh]       7.39523181 [kcal/mol]      30.94164990 [kJ/mol]

  Total HF                         37.01484672 [mEh]      23.22716699 [kcal/mol]      97.18246667 [kJ/mol]
  Total SAPT0                      -2.73133590 [mEh]      -1.71393916 [kcal/mol]      -7.17112143 [kJ/mol]
  Total SAPT2                       3.33572978 [mEh]       2.09320204 [kcal/mol]       8.75795732 [kJ/mol]
  Total SAPT2+                      1.65130596 [mEh]       1.03621014 [kcal/mol]       4.33550321 [kJ/mol]

  Special recipe for scaled SAPT0 (see Manual):
    Electrostatics sSAPT0        -131.56252738 [mEh]     -82.55673232 [kcal/mol]    -345.41736804 [kJ/mol]
    Exchange sSAPT0               261.00373873 [mEh]     163.78231875 [kcal/mol]     685.26522164 [kJ/mol]
    Induction sSAPT0              -73.36151349 [mEh]     -46.03504473 [kcal/mol]    -192.61062715 [kJ/mol]
    Dispersion sSAPT0             -36.88739688 [mEh]     -23.14719100 [kcal/mol]     -96.84784715 [kJ/mol]
  Total sSAPT0                     19.19230099 [mEh]      12.04335069 [kcal/mol]      50.38937930 [kJ/mol]
  --------------------------------------------------------------------------------------------------------

*** Psi4 exiting successfully. Buy a developer a beer!
