                               Psi4 1.3.2 release

  ==> Input File <==

--------------------------------------------------------------------------
#psi4
#
memory 32 gb

molecule  {
0 1
  C        2.1022740    -0.1999910     0.0000010
  H        3.1931760    -0.2048250     0.0000000
  N        1.3929100    -1.2773340     0.0000000
  H        2.0119970    -2.0793170    -0.0000010
  N        1.5658380     1.0343930     0.0000000
  H        0.5512430     1.1716950     0.0000000
  H        2.1722770     1.8295020    -0.0000010
--
0 1
  C       -1.2146496     0.1271087     0.0000000
  H       -2.3055516     0.1319427     0.0000000
  N       -0.5052856     1.2044517     0.0000000
  H       -1.1243726     2.0064347     0.0000000
  N       -0.6782136    -1.1072753     0.0000000
  H        0.3363814    -1.2445773     0.0000000
  H       -1.2846526    -1.9023843     0.0000000
units angstrom
no_reorient  #important for SAPT in psi4, default
symmetry c1  #important for SAPT in psi4, default
}

set {
basis aug-cc-pVTZ
scf_type DF
freeze_core True
}
energy('sapt2+')
--------------------------------------------------------------------------

  //              Dimer HF             //
    Molecular point group: c1
  Charge       = 0
  Multiplicity = 1
  Basis Set: AUG-CC-PVTZ
    Blend: AUG-CC-PVTZ
  Basis Set: (AUG-CC-PVTZ AUX)
    Blend: AUG-CC-PVTZ-JKFIT
  @DF-RHF Final Energy:  -298.09592993079082
    Total Energy =                       -298.0959299307908168
  //            Monomer A HF           //
    Molecular point group: c1
  Multiplicity = 1
  Basis Set: AUG-CC-PVTZ
    Blend: AUG-CC-PVTZ
  Basis Set: (AUG-CC-PVTZ AUX)
    Blend: AUG-CC-PVTZ-JKFIT
  @DF-RHF Final Energy:  -149.14330857766555
    Total Energy =                       -149.1433085776655503
  //            Monomer B HF           //
    Molecular point group: c1

    Geometry (in Angstrom), charge = 0, multiplicity = 1:

       Center              X                  Y                   Z               Mass
    ------------   -----------------  -----------------  -----------------  -----------------
      Gh(C)           1.658461800000    -0.163549850000     0.000000886638    12.000000000000
      Gh(H)           2.749363800000    -0.168383850000    -0.000000113362     1.007825032230
      Gh(N)           0.949097800000    -1.240892850000    -0.000000113362    14.003074004430
      Gh(H)           1.568184800000    -2.042875850000    -0.000001113362     1.007825032230
      Gh(N)           1.122025800000     1.070834150000    -0.000000113362    14.003074004430
      Gh(H)           0.107430800000     1.208136150000    -0.000000113362     1.007825032230
      Gh(H)           1.728464800000     1.865943150000    -0.000001113362     1.007825032230
         C           -1.658461800000     0.163549850000    -0.000000113362    12.000000000000
         H           -2.749363800000     0.168383850000    -0.000000113362     1.007825032230
         N           -0.949097800000     1.240892850000    -0.000000113362    14.003074004430
         H           -1.568184800000     2.042875850000    -0.000000113362     1.007825032230
         N           -1.122025800000    -1.070834150000    -0.000000113362    14.003074004430
         H           -0.107430800000    -1.208136150000    -0.000000113362     1.007825032230
         H           -1.728464800000    -1.865943150000    -0.000000113362     1.007825032230

  Charge       = 0
  Multiplicity = 1
  Basis Set: AUG-CC-PVTZ
    Blend: AUG-CC-PVTZ
  Basis Set: (AUG-CC-PVTZ AUX)
    Blend: AUG-CC-PVTZ-JKFIT

    Orbital Energies [Eh]
    ---------------------

    Doubly Occupied:

       1A    -15.581626     2A    -15.519411     3A    -11.314757
       4A     -1.258989     5A     -1.137025     6A     -0.829929
       7A     -0.745803     8A     -0.639644     9A     -0.615807
      10A     -0.530061    11A     -0.419652    12A     -0.359456

  @DF-RHF Final Energy:  -149.14330857745489

   => Energetics <=

    Nuclear Repulsion Energy =             72.1807086195704244
    One-Electron Energy =                -344.7437139633346987
    Two-Electron Energy =                 123.4196967663094284
    Total Energy =                       -149.1433085774548886

  Dipole Moment: [D]
     X:    -2.0895      Y:    -2.5218      Z:    -0.0000     Total:     3.2749

    SAPT Results
  --------------------------------------------------------------------------------------------------------
    Electrostatics               -236.72450174 [mEh]    -148.54686751 [kcal/mol]    -621.52009368 [kJ/mol]
      Elst10,r                   -238.51703889 [mEh]    -149.67170156 [kcal/mol]    -626.22639933 [kJ/mol]
      Elst12,r                      1.79253715 [mEh]       1.12483405 [kcal/mol]       4.70630565 [kJ/mol]

    Exchange                      657.76179518 [mEh]     412.75175797 [kcal/mol]    1726.95335533 [kJ/mol]
      Exch10                      656.73515738 [mEh]     412.10753302 [kcal/mol]    1724.25791816 [kJ/mol]
      Exch10(S^2)                 553.90507816 [mEh]     347.58068412 [kcal/mol]    1454.27758236 [kJ/mol]
      Exch11(S^2)                   5.97177573 [mEh]       3.74734584 [kcal/mol]      15.67889501 [kJ/mol]
      Exch12(S^2)                  -4.94513793 [mEh]      -3.10312090 [kcal/mol]     -12.98345783 [kJ/mol]

    Induction                    -240.52828965 [mEh]    -150.93378046 [kcal/mol]    -631.50693746 [kJ/mol]
      Ind20,r                    -391.86422767 [mEh]    -245.89851530 [kcal/mol]   -1028.83938800 [kJ/mol]
      Ind22                       -24.74035772 [mEh]     -15.52480886 [kcal/mol]     -64.95580025 [kJ/mol]
      Exch-Ind20,r                185.99758662 [mEh]     116.71524771 [kcal/mol]     488.33659640 [kJ/mol]
      Exch-Ind22                   11.74296224 [mEh]       7.36882006 [kcal/mol]      30.83114311 [kJ/mol]
      delta HF,r (2)              -21.66425312 [mEh]     -13.59452407 [kcal/mol]     -56.87948872 [kJ/mol]

    Dispersion                    -83.80012835 [mEh]     -52.58537444 [kcal/mol]    -220.01720666 [kJ/mol]
      Disp20                     -103.94476208 [mEh]     -65.22632296 [kcal/mol]    -272.90693525 [kJ/mol]
      Disp21                       16.62631373 [mEh]      10.43316938 [kcal/mol]      43.65238068 [kJ/mol]
      Disp22 (SDQ)                  0.54973298 [mEh]       0.34496265 [kcal/mol]       1.44332373 [kJ/mol]
      Disp22 (T)                  -13.34359199 [mEh]      -8.37323038 [kcal/mol]     -35.03359593 [kJ/mol]
      Est. Disp22 (T)             -14.26115337 [mEh]      -8.94900885 [kcal/mol]     -37.44265301 [kJ/mol]
      Exch-Disp20                  17.22974040 [mEh]      10.81182533 [kcal/mol]      45.23667718 [kJ/mol]

  Total HF                        190.68722433 [mEh]     119.65803980 [kcal/mol]     500.64923850 [kJ/mol]
  Total SAPT0                     103.97220265 [mEh]      65.24354217 [kcal/mol]     272.97898044 [kJ/mol]
  Total SAPT2                      93.79398212 [mEh]      58.85661236 [kcal/mol]     246.25606612 [kJ/mol]
  Total SAPT2+                     96.70887545 [mEh]      60.68573555 [kcal/mol]     253.90911752 [kJ/mol]

  Special recipe for scaled SAPT0 (see Manual):
    Electrostatics sSAPT0        -238.51703889 [mEh]    -149.67170156 [kcal/mol]    -626.22639933 [kJ/mol]
    Exchange sSAPT0               656.73515738 [mEh]     412.10753302 [kcal/mol]    1724.25791816 [kJ/mol]
    Induction sSAPT0             -103.52107585 [mEh]     -64.96045583 [kcal/mol]    -271.79454720 [kJ/mol]
    Dispersion sSAPT0             -75.22746953 [mEh]     -47.20594982 [kcal/mol]    -197.50969405 [kJ/mol]
  Total sSAPT0                    239.46957311 [mEh]     150.26942581 [kcal/mol]     628.72727758 [kJ/mol]
  --------------------------------------------------------------------------------------------------------

*** Psi4 exiting successfully. Buy a developer a beer!
