                               Psi4 1.3.2 release

  ==> Input File <==

--------------------------------------------------------------------------
#psi4
#
memory 32 gb

molecule  {
0 1
  C       -1.9521150     0.2323370    -0.0000010
  H       -3.0450720     0.2485030     0.0000010
  O       -1.2823360     1.2482650     0.0000000
  O       -1.5045270    -1.0066940    -0.0000010
  H       -0.5061810    -1.0124010    -0.0000010
--
0 1
  C        1.8148187    -0.2370040     0.0000030
  H        2.8975147    -0.4090300    -0.0000010
  O        1.0254297    -1.1801370    -0.0000001
  N        1.4699857     1.0561480     0.0000009
  H        0.4845807     1.3074680    -0.0000001
  H        2.1801997     1.7630280    -0.0000010
units angstrom
no_reorient  #important for SAPT in psi4, default
symmetry c1  #important for SAPT in psi4, default
}

set {
basis aug-cc-pVTZ
scf_type DF
freeze_core True
}
energy('sapt2+')
--------------------------------------------------------------------------

  //              Dimer HF             //
    Molecular point group: c1
  Charge       = 0
  Multiplicity = 1
  Basis Set: AUG-CC-PVTZ
    Blend: AUG-CC-PVTZ
  Basis Set: (AUG-CC-PVTZ AUX)
    Blend: AUG-CC-PVTZ-JKFIT
  @DF-RHF Final Energy:  -357.86492627361048
    Total Energy =                       -357.8649262736104788
  //            Monomer A HF           //
    Molecular point group: c1
  Multiplicity = 1
  Basis Set: AUG-CC-PVTZ
    Blend: AUG-CC-PVTZ
  Basis Set: (AUG-CC-PVTZ AUX)
    Blend: AUG-CC-PVTZ-JKFIT
  @DF-RHF Final Energy:  -188.84126298445693
    Total Energy =                       -188.8412629844569324
  //            Monomer B HF           //
    Molecular point group: c1

    Geometry (in Angstrom), charge = 0, multiplicity = 1:

       Center              X                  Y                   Z               Mass
    ------------   -----------------  -----------------  -----------------  -----------------
      Gh(C)          -1.872902917399     0.214392333890    -0.000001185571    12.000000000000
      Gh(H)          -2.965859917399     0.230558333890     0.000000814429     1.007825032230
      Gh(O)          -1.203123917399     1.230320333890    -0.000000185571    15.994914619570
      Gh(O)          -1.425314917399    -1.024638666110    -0.000001185571    15.994914619570
      Gh(H)          -0.426968917399    -1.030345666110    -0.000001185571     1.007825032230
         C            1.894030782601    -0.254948666110     0.000002814429    12.000000000000
         H            2.976726782601    -0.426974666110    -0.000001185571     1.007825032230
         O            1.104641782601    -1.198081666110    -0.000000285571    15.994914619570
         N            1.549197782601     1.038203333890     0.000000714429    14.003074004430
         H            0.563792782601     1.289523333890    -0.000000285571     1.007825032230
         H            2.259411782601     1.745083333890    -0.000001185571     1.007825032230

  Charge       = 0
  Multiplicity = 1
  Basis Set: AUG-CC-PVTZ
    Blend: AUG-CC-PVTZ
  Basis Set: (AUG-CC-PVTZ AUX)
    Blend: AUG-CC-PVTZ-JKFIT

    Orbital Energies [Eh]
    ---------------------

    Doubly Occupied:

       1A    -20.526082     2A    -15.602152     3A    -11.355928
       4A     -1.375697     5A     -1.228485     6A     -0.855261
       7A     -0.758898     8A     -0.677470     9A     -0.602296
      10A     -0.572010    11A     -0.434836    12A     -0.421726

  @DF-RHF Final Energy:  -169.00329884370532

   => Energetics <=

    Nuclear Repulsion Energy =             71.2263167891435955
    One-Electron Energy =                -371.6375476170049410
    Two-Electron Energy =                 131.4079319841560221
    Total Energy =                       -169.0032988437053234

  Dipole Moment: [D]
     X:     1.8678      Y:     4.0720      Z:     0.0000     Total:     4.4800

    SAPT Results
  --------------------------------------------------------------------------------------------------------
    Electrostatics                -57.19673811 [mEh]     -35.89149504 [kcal/mol]    -150.17001523 [kJ/mol]
      Elst10,r                    -59.13371880 [mEh]     -37.10696877 [kcal/mol]    -155.25555732 [kJ/mol]
      Elst12,r                      1.93698069 [mEh]       1.21547373 [kcal/mol]       5.08554209 [kJ/mol]

    Exchange                       78.73782585 [mEh]      49.40873167 [kcal/mol]     206.72613330 [kJ/mol]
      Exch10                       69.90736035 [mEh]      43.86753091 [kcal/mol]     183.54174932 [kJ/mol]
      Exch10(S^2)                  68.36582827 [mEh]      42.90020492 [kcal/mol]     179.49445739 [kJ/mol]
      Exch11(S^2)                   0.35302482 [mEh]       0.22152642 [kcal/mol]       0.92686653 [kJ/mol]
      Exch12(S^2)                   8.47744068 [mEh]       5.31967434 [kcal/mol]      22.25751744 [kJ/mol]

    Induction                     -33.58680280 [mEh]     -21.07603695 [kcal/mol]     -88.18213861 [kJ/mol]
      Ind20,r                     -38.55534728 [mEh]     -24.19384568 [kcal/mol]    -101.22705034 [kJ/mol]
      Ind22                        -5.44752709 [mEh]      -3.41837486 [kcal/mol]     -14.30248040 [kJ/mol]
      Exch-Ind20,r                 21.22434798 [mEh]      13.31847943 [kcal/mol]      55.72451796 [kJ/mol]
      Exch-Ind22                    2.99881129 [mEh]       1.88178249 [kcal/mol]       7.87337795 [kJ/mol]
      delta HF,r (2)              -13.80708771 [mEh]      -8.66407834 [kcal/mol]     -36.25050378 [kJ/mol]

    Dispersion                    -18.26009997 [mEh]     -11.45838572 [kcal/mol]     -47.94188586 [kJ/mol]
      Disp20                      -20.07298121 [mEh]     -12.59598587 [kcal/mol]     -52.70160489 [kJ/mol]
      Disp21                        1.78040434 [mEh]       1.11722059 [kcal/mol]       4.67445095 [kJ/mol]
      Disp22 (SDQ)                 -0.53626668 [mEh]      -0.33651242 [kcal/mol]      -1.40796798 [kJ/mol]
      Disp22 (T)                   -3.25533703 [mEh]      -2.04275483 [kcal/mol]      -8.54688619 [kJ/mol]
      Est. Disp22 (T)              -3.71071032 [mEh]      -2.32850588 [kcal/mol]      -9.74246861 [kJ/mol]
      Exch-Disp20                   4.27945390 [mEh]       2.68539787 [kcal/mol]      11.23570467 [kJ/mol]

  Total HF                        -20.36444545 [mEh]     -12.77888245 [kcal/mol]     -53.46684416 [kJ/mol]
  Total SAPT0                     -36.15797275 [mEh]     -22.68947045 [kcal/mol]     -94.93274438 [kJ/mol]
  Total SAPT2                     -27.83924237 [mEh]     -17.46938833 [kcal/mol]     -73.09192077 [kJ/mol]
  Total SAPT2+                    -30.30581503 [mEh]     -19.01718604 [kcal/mol]     -79.56790641 [kJ/mol]

  Special recipe for scaled SAPT0 (see Manual):
    Electrostatics sSAPT0         -59.13371880 [mEh]     -37.10696877 [kcal/mol]    -155.25555732 [kJ/mol]
    Exchange sSAPT0                69.90736035 [mEh]      43.86753091 [kcal/mol]     183.54174932 [kJ/mol]
    Induction sSAPT0              -29.66975286 [mEh]     -18.61805100 [kcal/mol]     -77.89792539 [kJ/mol]
    Dispersion sSAPT0             -15.49746788 [mEh]      -9.72480791 [kcal/mol]     -40.68859631 [kJ/mol]
  Total sSAPT0                    -34.39357918 [mEh]     -21.58229677 [kcal/mol]     -90.30032970 [kJ/mol]
  --------------------------------------------------------------------------------------------------------

*** Psi4 exiting successfully. Buy a developer a beer!
