                               Psi4 1.3.2 release

  ==> Input File <==

--------------------------------------------------------------------------
#psi4
#
memory 32 gb

molecule  {
0 1
  C        1.9047060    -0.1798760     0.0000010
  H        2.9930900    -0.2590830    -0.0000010
  O        1.1798480    -1.1602640     0.0000000
  O        1.5170880     1.0770050     0.0000000
  H        0.5236580     1.1098660     0.0000010
--
0 1
  C       -1.9047290     0.1798580    -0.0000010
  H       -2.9931190     0.2590000     0.0000000
  O       -1.1799300     1.1602900     0.0000000
  O       -1.5170290    -1.0769970     0.0000000
  H       -0.5235830    -1.1097970     0.0000010
units angstrom
no_reorient  #important for SAPT in psi4, default
symmetry c1  #important for SAPT in psi4, default
}

set {
basis aug-cc-pVTZ
scf_type DF
freeze_core True
}
energy('sapt2+')
--------------------------------------------------------------------------

  //              Dimer HF             //
    Molecular point group: c1
  Charge       = 0
  Multiplicity = 1
  Basis Set: AUG-CC-PVTZ
    Blend: AUG-CC-PVTZ
  Basis Set: (AUG-CC-PVTZ AUX)
    Blend: AUG-CC-PVTZ-JKFIT
  @DF-RHF Final Energy:  -377.70698918196365
    Total Energy =                       -377.7069891819636496
  //            Monomer A HF           //
    Molecular point group: c1
  Multiplicity = 1
  Basis Set: AUG-CC-PVTZ
    Blend: AUG-CC-PVTZ
  Basis Set: (AUG-CC-PVTZ AUX)
    Blend: AUG-CC-PVTZ-JKFIT
  @DF-RHF Final Energy:  -188.84147843169225
    Total Energy =                       -188.8414784316922521
  //            Monomer B HF           //
    Molecular point group: c1

    Geometry (in Angstrom), charge = 0, multiplicity = 1:

       Center              X                  Y                   Z               Mass
    ------------   -----------------  -----------------  -----------------  -----------------
      Gh(C)           1.904712494043    -0.179879409567     0.000000989047    12.000000000000
      Gh(H)           2.993096494043    -0.259086409567    -0.000001010953     1.007825032230
      Gh(O)           1.179854494043    -1.160267409567    -0.000000010953    15.994914619570
      Gh(O)           1.517094494043     1.077001590433    -0.000000010953    15.994914619570
      Gh(H)           0.523664494043     1.109862590433     0.000000989047     1.007825032230
         C           -1.904722505957     0.179854590433    -0.000001010953    12.000000000000
         H           -2.993112505957     0.258996590433    -0.000000010953     1.007825032230
         O           -1.179923505957     1.160286590433    -0.000000010953    15.994914619570
         O           -1.517022505957    -1.077000409567    -0.000000010953    15.994914619570
         H           -0.523576505957    -1.109800409567     0.000000989047     1.007825032230

  Charge       = 0
  Multiplicity = 1
  Basis Set: AUG-CC-PVTZ
    Blend: AUG-CC-PVTZ
  Basis Set: (AUG-CC-PVTZ AUX)
    Blend: AUG-CC-PVTZ-JKFIT

    Orbital Energies [Eh]
    ---------------------

    Doubly Occupied:

       1A    -20.638346     2A    -20.561662     3A    -11.396521
       4A     -1.482733     5A     -1.369382     6A     -0.901971
       7A     -0.731349     8A     -0.712068     9A     -0.644347
      10A     -0.597449    11A     -0.491027    12A     -0.470915

  @DF-RHF Final Energy:  -188.84147725970132

   => Energetics <=

    Nuclear Repulsion Energy =             70.1580372184758971
    One-Electron Energy =                -398.0034844903722160
    Two-Electron Energy =                 139.0039700121949977
    Total Energy =                       -188.8414772597013211

  Dipole Moment: [D]
     X:    -0.4968      Y:    -1.9980      Z:    -0.0000     Total:     2.0588

    SAPT Results
  --------------------------------------------------------------------------------------------------------
    Electrostatics                -47.81212714 [mEh]     -30.00256274 [kcal/mol]    -125.53072251 [kJ/mol]
      Elst10,r                    -50.00379615 [mEh]     -31.37785581 [kcal/mol]    -131.28494869 [kJ/mol]
      Elst12,r                      2.19166901 [mEh]       1.37529307 [kcal/mol]       5.75422619 [kJ/mol]

    Exchange                       58.66640312 [mEh]      36.81372375 [kcal/mol]     154.02862016 [kJ/mol]
      Exch10                       50.85918655 [mEh]      31.91462139 [kcal/mol]     133.53077590 [kJ/mol]
      Exch10(S^2)                  50.02353984 [mEh]      31.39024516 [kcal/mol]     131.33678576 [kJ/mol]
      Exch11(S^2)                   0.24919774 [mEh]       0.15637394 [kcal/mol]       0.65426858 [kJ/mol]
      Exch12(S^2)                   7.55801882 [mEh]       4.74272841 [kcal/mol]      19.84357568 [kJ/mol]

    Induction                     -26.98488737 [mEh]     -16.93327247 [kcal/mol]     -70.84881203 [kJ/mol]
      Ind20,r                     -29.87144048 [mEh]     -18.74461190 [kcal/mol]     -78.42745617 [kJ/mol]
      Ind22                        -4.38339204 [mEh]      -2.75062003 [kcal/mol]     -11.50859422 [kJ/mol]
      Exch-Ind20,r                 15.58781500 [mEh]       9.78150159 [kcal/mol]      40.92580265 [kJ/mol]
      Exch-Ind22                    2.28738565 [mEh]       1.43535616 [kcal/mol]       6.00553019 [kJ/mol]
      delta HF,r (2)              -10.60525550 [mEh]      -6.65489830 [kcal/mol]     -27.84409448 [kJ/mol]

    Dispersion                    -15.35782254 [mEh]      -9.63717914 [kcal/mol]     -40.32195751 [kJ/mol]
      Disp20                      -16.19564132 [mEh]     -10.16291836 [kcal/mol]     -42.52165042 [kJ/mol]
      Disp21                        1.34127986 [mEh]       0.84166582 [kcal/mol]       3.52152979 [kJ/mol]
      Disp22 (SDQ)                 -0.59695461 [mEh]      -0.37459467 [kcal/mol]      -1.56730411 [kJ/mol]
      Disp22 (T)                   -2.75130957 [mEh]      -1.72647282 [kcal/mol]      -7.22356227 [kJ/mol]
      Est. Disp22 (T)              -3.14036098 [mEh]      -1.97060627 [kcal/mol]      -8.24501662 [kJ/mol]
      Exch-Disp20                   3.23385451 [mEh]       2.02927434 [kcal/mol]       8.49048385 [kJ/mol]

  Total HF                        -24.03349057 [mEh]     -15.08124302 [kcal/mol]     -63.09992080 [kJ/mol]
  Total SAPT0                     -36.99527738 [mEh]     -23.21488704 [kcal/mol]     -97.13108737 [kJ/mol]
  Total SAPT2                     -29.09239820 [mEh]     -18.25575549 [kcal/mol]     -76.38208095 [kJ/mol]
  Total SAPT2+                    -31.48843393 [mEh]     -19.75929060 [kcal/mol]     -82.67287189 [kJ/mol]

  Special recipe for scaled SAPT0 (see Manual):
    Electrostatics sSAPT0         -50.00379615 [mEh]     -31.37785581 [kcal/mol]    -131.28494869 [kJ/mol]
    Exchange sSAPT0                50.85918655 [mEh]      31.91462139 [kcal/mol]     133.53077590 [kJ/mol]
    Induction sSAPT0              -24.09457193 [mEh]     -15.11957216 [kcal/mol]     -63.26028990 [kJ/mol]
    Dispersion sSAPT0             -12.79699913 [mEh]      -8.03023819 [kcal/mol]     -33.59851658 [kJ/mol]
  Total sSAPT0                    -36.03618065 [mEh]     -22.61304476 [kcal/mol]     -94.61297927 [kJ/mol]
  --------------------------------------------------------------------------------------------------------

*** Psi4 exiting successfully. Buy a developer a beer!
