                               Psi4 1.3.2 release

  ==> Input File <==

--------------------------------------------------------------------------
#psi4
#
memory 32 gb

molecule  {
0 1
  C        2.1022740    -0.1999910     0.0000010
  H        3.1931760    -0.2048250     0.0000000
  N        1.3929100    -1.2773340     0.0000000
  H        2.0119970    -2.0793170    -0.0000010
  N        1.5658380     1.0343930     0.0000000
  H        0.5512430     1.1716950     0.0000000
  H        2.1722770     1.8295020    -0.0000010
--
0 1
  C       -1.5105244     0.1514028     0.0000000
  H       -2.6014264     0.1562368     0.0000000
  N       -0.8011604     1.2287458     0.0000000
  H       -1.4202474     2.0307288     0.0000000
  N       -0.9740884    -1.0829812     0.0000000
  H        0.0405066    -1.2202832     0.0000000
  H       -1.5805274    -1.8780902     0.0000000
units angstrom
no_reorient  #important for SAPT in psi4, default
symmetry c1  #important for SAPT in psi4, default
}

set {
basis aug-cc-pVTZ
scf_type DF
freeze_core True
}
energy('sapt2+')
--------------------------------------------------------------------------

  //              Dimer HF             //
    Molecular point group: c1
  Charge       = 0
  Multiplicity = 1
  Basis Set: AUG-CC-PVTZ
    Blend: AUG-CC-PVTZ
  Basis Set: (AUG-CC-PVTZ AUX)
    Blend: AUG-CC-PVTZ-JKFIT
  @DF-RHF Final Energy:  -298.24531548803344
    Total Energy =                       -298.2453154880334409
  //            Monomer A HF           //
    Molecular point group: c1
  Multiplicity = 1
  Basis Set: AUG-CC-PVTZ
    Blend: AUG-CC-PVTZ
  Basis Set: (AUG-CC-PVTZ AUX)
    Blend: AUG-CC-PVTZ-JKFIT
  @DF-RHF Final Energy:  -149.14321713498094
    Total Energy =                       -149.1432171349809437
  //            Monomer B HF           //
    Molecular point group: c1

    Geometry (in Angstrom), charge = 0, multiplicity = 1:

       Center              X                  Y                   Z               Mass
    ------------   -----------------  -----------------  -----------------  -----------------
      Gh(C)           1.806399200000    -0.175696900000     0.000000886638    12.000000000000
      Gh(H)           2.897301200000    -0.180530900000    -0.000000113362     1.007825032230
      Gh(N)           1.097035200000    -1.253039900000    -0.000000113362    14.003074004430
      Gh(H)           1.716122200000    -2.055022900000    -0.000001113362     1.007825032230
      Gh(N)           1.269963200000     1.058687100000    -0.000000113362    14.003074004430
      Gh(H)           0.255368200000     1.195989100000    -0.000000113362     1.007825032230
      Gh(H)           1.876402200000     1.853796100000    -0.000001113362     1.007825032230
         C           -1.806399200000     0.175696900000    -0.000000113362    12.000000000000
         H           -2.897301200000     0.180530900000    -0.000000113362     1.007825032230
         N           -1.097035200000     1.253039900000    -0.000000113362    14.003074004430
         H           -1.716122200000     2.055022900000    -0.000000113362     1.007825032230
         N           -1.269963200000    -1.058687100000    -0.000000113362    14.003074004430
         H           -0.255368200000    -1.195989100000    -0.000000113362     1.007825032230
         H           -1.876402200000    -1.853796100000    -0.000000113362     1.007825032230

  Charge       = 0
  Multiplicity = 1
  Basis Set: AUG-CC-PVTZ
    Blend: AUG-CC-PVTZ
  Basis Set: (AUG-CC-PVTZ AUX)
    Blend: AUG-CC-PVTZ-JKFIT

    Orbital Energies [Eh]
    ---------------------

    Doubly Occupied:

       1A    -15.581636     2A    -15.519532     3A    -11.314768
       4A     -1.258995     5A     -1.137034     6A     -0.829934
       7A     -0.745806     8A     -0.639645     9A     -0.615814
      10A     -0.530065    11A     -0.419642    12A     -0.359456

  @DF-RHF Final Energy:  -149.14321713483048

   => Energetics <=

    Nuclear Repulsion Energy =             72.1807086195704244
    One-Electron Energy =                -344.7431963304483133
    Two-Electron Energy =                 123.4192705760474240
    Total Energy =                       -149.1432171348304792

  Dipole Moment: [D]
     X:    -2.0895      Y:    -2.5219      Z:    -0.0000     Total:     3.2750

    SAPT Results
  --------------------------------------------------------------------------------------------------------
    Electrostatics               -135.25500951 [mEh]     -84.87379984 [kcal/mol]    -355.11197854 [kJ/mol]
      Elst10,r                   -135.13853177 [mEh]     -84.80070896 [kcal/mol]    -354.80616627 [kJ/mol]
      Elst12,r                     -0.11647774 [mEh]      -0.07309089 [kcal/mol]      -0.30581227 [kJ/mol]

    Exchange                      278.31833235 [mEh]     174.64739028 [kcal/mol]     730.72468091 [kJ/mol]
      Exch10                      270.29060023 [mEh]     169.60991231 [kcal/mol]     709.64787312 [kJ/mol]
      Exch10(S^2)                 249.92612927 [mEh]     156.83101386 [kcal/mol]     656.18096201 [kJ/mol]
      Exch11(S^2)                   3.68637968 [mEh]       2.31323817 [kcal/mol]       9.67858851 [kJ/mol]
      Exch12(S^2)                   4.34135245 [mEh]       2.72423979 [kcal/mol]      11.39821928 [kJ/mol]

    Induction                     -98.80796388 [mEh]     -62.00293342 [kcal/mol]    -259.42027344 [kJ/mol]
      Ind20,r                    -136.75820428 [mEh]     -85.81706880 [kcal/mol]    -359.05861588 [kJ/mol]
      Ind22                       -11.10168979 [mEh]      -6.96641552 [kcal/mol]     -29.14748254 [kJ/mol]
      Exch-Ind20,r                 77.94046639 [mEh]      48.90838105 [kcal/mol]     204.63266633 [kJ/mol]
      Exch-Ind22                    6.32701259 [mEh]       3.97026034 [kcal/mol]      16.61156927 [kJ/mol]
      delta HF,r (2)              -35.21554879 [mEh]     -22.09809049 [kcal/mol]     -92.45841062 [kJ/mol]

    Dispersion                    -43.27634658 [mEh]     -27.15631747 [kcal/mol]    -113.62203228 [kJ/mol]
      Disp20                      -54.47911955 [mEh]     -34.18616364 [kcal/mol]    -143.03490867 [kJ/mol]
      Disp21                        6.59867213 [mEh]       4.14072928 [kcal/mol]      17.32481129 [kJ/mol]
      Disp22 (SDQ)                  0.64612311 [mEh]       0.40544838 [kcal/mol]       1.69639600 [kJ/mol]
      Disp22 (T)                   -7.47506199 [mEh]      -4.69067222 [kcal/mol]     -19.62577256 [kJ/mol]
      Est. Disp22 (T)              -8.22836649 [mEh]      -5.16337792 [kcal/mol]     -21.60357324 [kJ/mol]
      Exch-Disp20                  12.18634422 [mEh]       7.64704645 [kcal/mol]      31.99524234 [kJ/mol]

  Total HF                         41.11878178 [mEh]      25.80242512 [kcal/mol]     107.95734668 [kJ/mol]
  Total SAPT0                      -1.17399355 [mEh]      -0.73669208 [kcal/mol]      -3.08231965 [kJ/mol]
  Total SAPT2                       1.96258362 [mEh]       1.23153982 [kcal/mol]       5.15276260 [kJ/mol]
  Total SAPT2+                      0.97901238 [mEh]       0.61433954 [kcal/mol]       2.57039665 [kJ/mol]

  Special recipe for scaled SAPT0 (see Manual):
    Electrostatics sSAPT0        -135.13853177 [mEh]     -84.80070896 [kcal/mol]    -354.80616627 [kJ/mol]
    Exchange sSAPT0               270.29060023 [mEh]     169.60991231 [kcal/mol]     709.64787312 [kJ/mol]
    Induction sSAPT0              -73.38648344 [mEh]     -46.05071361 [kcal/mol]    -192.67618574 [kJ/mol]
    Dispersion sSAPT0             -39.06455432 [mEh]     -24.51337792 [kcal/mol]    -102.56397324 [kJ/mol]
  Total sSAPT0                     22.70103069 [mEh]      14.24511183 [kcal/mol]      59.60154788 [kJ/mol]
  --------------------------------------------------------------------------------------------------------

*** Psi4 exiting successfully. Buy a developer a beer!
