                               Psi4 1.3.2 release

  ==> Input File <==

--------------------------------------------------------------------------
#psi4
#
memory 32 gb

molecule  {
0 1
  C        1.9047060    -0.1798760     0.0000010
  H        2.9930900    -0.2590830    -0.0000010
  O        1.1798480    -1.1602640     0.0000000
  O        1.5170880     1.0770050     0.0000000
  H        0.5236580     1.1098660     0.0000010
--
0 1
  C       -1.7698816     0.1756942    -0.0000010
  H       -2.8582716     0.2548362     0.0000000
  O       -1.0450826     1.1561262     0.0000000
  O       -1.3821816    -1.0811608     0.0000000
  H       -0.3887356    -1.1139608     0.0000010
units angstrom
no_reorient  #important for SAPT in psi4, default
symmetry c1  #important for SAPT in psi4, default
}

set {
basis aug-cc-pVTZ
scf_type DF
freeze_core True
}
energy('sapt2+')
--------------------------------------------------------------------------

  //              Dimer HF             //
    Molecular point group: c1
  Charge       = 0
  Multiplicity = 1
  Basis Set: AUG-CC-PVTZ
    Blend: AUG-CC-PVTZ
  Basis Set: (AUG-CC-PVTZ AUX)
    Blend: AUG-CC-PVTZ-JKFIT
  @DF-RHF Final Energy:  -377.70446844674348
    Total Energy =                       -377.7044684467434763
  //            Monomer A HF           //
    Molecular point group: c1
  Multiplicity = 1
  Basis Set: AUG-CC-PVTZ
    Blend: AUG-CC-PVTZ
  Basis Set: (AUG-CC-PVTZ AUX)
    Blend: AUG-CC-PVTZ-JKFIT
  @DF-RHF Final Energy:  -188.84152067824957
    Total Energy =                       -188.8415206782495659
  //            Monomer B HF           //
    Molecular point group: c1

    Geometry (in Angstrom), charge = 0, multiplicity = 1:

       Center              X                  Y                   Z               Mass
    ------------   -----------------  -----------------  -----------------  -----------------
      Gh(C)           1.837288794043    -0.177797509567     0.000000989047    12.000000000000
      Gh(H)           2.925672794043    -0.257004509567    -0.000001010953     1.007825032230
      Gh(O)           1.112430794043    -1.158185509567    -0.000000010953    15.994914619570
      Gh(O)           1.449670794043     1.079083490433    -0.000000010953    15.994914619570
      Gh(H)           0.456240794043     1.111944490433     0.000000989047     1.007825032230
         C           -1.837298805957     0.177772690433    -0.000001010953    12.000000000000
         H           -2.925688805957     0.256914690433    -0.000000010953     1.007825032230
         O           -1.112499805957     1.158204690433    -0.000000010953    15.994914619570
         O           -1.449598805957    -1.079082309567    -0.000000010953    15.994914619570
         H           -0.456152805957    -1.111882309567     0.000000989047     1.007825032230

  Charge       = 0
  Multiplicity = 1
  Basis Set: AUG-CC-PVTZ
    Blend: AUG-CC-PVTZ
  Basis Set: (AUG-CC-PVTZ AUX)
    Blend: AUG-CC-PVTZ-JKFIT

    Orbital Energies [Eh]
    ---------------------

    Doubly Occupied:

       1A    -20.638327     2A    -20.561642     3A    -11.396511
       4A     -1.482722     5A     -1.369371     6A     -0.901965
       7A     -0.731343     8A     -0.712063     9A     -0.644341
      10A     -0.597442    11A     -0.491018    12A     -0.470910

  @DF-RHF Final Energy:  -188.84151950597285

   => Energetics <=

    Nuclear Repulsion Energy =             70.1580372184758971
    One-Electron Energy =                -398.0038043812120350
    Two-Electron Energy =                 139.0042476567632832
    Total Energy =                       -188.8415195059728546

  Dipole Moment: [D]
     X:    -0.4966      Y:    -1.9980      Z:    -0.0000     Total:     2.0588

    SAPT Results
  --------------------------------------------------------------------------------------------------------
    Electrostatics                -62.82081123 [mEh]     -39.42065420 [kcal/mol]    -164.93601716 [kJ/mol]
      Elst10,r                    -64.91134330 [mEh]     -40.73248287 [kcal/mol]    -170.42470835 [kJ/mol]
      Elst12,r                      2.09053207 [mEh]       1.31182868 [kcal/mol]       5.48869119 [kJ/mol]

    Exchange                       91.79579616 [mEh]      57.60273174 [kcal/mol]     241.00982962 [kJ/mol]
      Exch10                       81.32263112 [mEh]      51.03072146 [kcal/mol]     213.51253858 [kJ/mol]
      Exch10(S^2)                  79.37424367 [mEh]      49.80808988 [kcal/mol]     208.39704805 [kJ/mol]
      Exch11(S^2)                   0.34466599 [mEh]       0.21628118 [kcal/mol]       0.90492044 [kJ/mol]
      Exch12(S^2)                  10.12849905 [mEh]       6.35572911 [kcal/mol]      26.59237060 [kJ/mol]

    Induction                     -40.88988778 [mEh]     -25.65879197 [kcal/mol]    -107.35638559 [kJ/mol]
      Ind20,r                     -46.93631483 [mEh]     -29.45298222 [kcal/mol]    -123.23127761 [kJ/mol]
      Ind22                        -6.79160659 [mEh]      -4.26179748 [kcal/mol]     -17.83136065 [kJ/mol]
      Exch-Ind20,r                 25.85564758 [mEh]      16.22466381 [kcal/mol]      67.88399337 [kJ/mol]
      Exch-Ind22                    3.74126915 [mEh]       2.34768183 [kcal/mol]       9.82270079 [kJ/mol]
      delta HF,r (2)              -16.75888309 [mEh]     -10.51635791 [kcal/mol]     -44.00044150 [kJ/mol]

    Dispersion                    -20.09572791 [mEh]     -12.61025964 [kcal/mol]     -52.76132635 [kJ/mol]
      Disp20                      -22.01454778 [mEh]     -13.81433729 [kcal/mol]     -57.79918723 [kJ/mol]
      Disp21                        2.05801486 [mEh]       1.29142382 [kcal/mol]       5.40331727 [kJ/mol]
      Disp22 (SDQ)                 -0.78979729 [mEh]      -0.49560528 [kcal/mol]      -2.07361251 [kJ/mol]
      Disp22 (T)                   -3.63874331 [mEh]      -2.28334590 [kcal/mol]      -9.55351925 [kJ/mol]
      Est. Disp22 (T)              -4.12738650 [mEh]      -2.58997413 [kcal/mol]     -10.83645177 [kJ/mol]
      Exch-Disp20                   4.77798881 [mEh]       2.99823324 [kcal/mol]      12.54460788 [kJ/mol]

  Total HF                        -21.42826252 [mEh]     -13.44643774 [kcal/mol]     -56.25989550 [kJ/mol]
  Total SAPT0                     -38.66482149 [mEh]     -24.26254179 [kcal/mol]    -101.51447485 [kJ/mol]
  Total SAPT2                     -29.15146182 [mEh]     -18.29281847 [kcal/mol]     -76.53715248 [kJ/mol]
  Total SAPT2+                    -32.01063076 [mEh]     -20.08697406 [kcal/mol]     -84.04389948 [kJ/mol]

  Special recipe for scaled SAPT0 (see Manual):
    Electrostatics sSAPT0         -64.91134330 [mEh]     -40.73248287 [kcal/mol]    -170.42470835 [kJ/mol]
    Exchange sSAPT0                81.32263112 [mEh]      51.03072146 [kcal/mol]     213.51253858 [kJ/mol]
    Induction sSAPT0              -35.88840623 [mEh]     -22.52031491 [kcal/mol]     -94.22499758 [kJ/mol]
    Dispersion sSAPT0             -16.87599772 [mEh]     -10.58984845 [kcal/mol]     -44.30792591 [kJ/mol]
  Total sSAPT0                    -36.35311613 [mEh]     -22.81192478 [kcal/mol]     -95.44509326 [kJ/mol]
  --------------------------------------------------------------------------------------------------------

*** Psi4 exiting successfully. Buy a developer a beer!
