                               Psi4 1.3.2 release

  ==> Input File <==

--------------------------------------------------------------------------
#psi4
#
memory 32 gb

molecule  {
0 1
  C        1.9047060    -0.1798760     0.0000010
  H        2.9930900    -0.2590830    -0.0000010
  O        1.1798480    -1.1602640     0.0000000
  O        1.5170880     1.0770050     0.0000000
  H        0.5236580     1.1098660     0.0000010
--
0 1
  C       -1.3653395     0.1632028    -0.0000010
  H       -2.4537295     0.2423448     0.0000000
  O       -0.6405405     1.1436348     0.0000000
  O       -0.9776395    -1.0936522     0.0000000
  H        0.0158065    -1.1264522     0.0000010
units angstrom
no_reorient  #important for SAPT in psi4, default
symmetry c1  #important for SAPT in psi4, default
}

set {
basis aug-cc-pVTZ
scf_type DF
freeze_core True
}
energy('sapt2+')
--------------------------------------------------------------------------

  //              Dimer HF             //
    Molecular point group: c1
  Charge       = 0
  Multiplicity = 1
  Basis Set: AUG-CC-PVTZ
    Blend: AUG-CC-PVTZ
  Basis Set: (AUG-CC-PVTZ AUX)
    Blend: AUG-CC-PVTZ-JKFIT
  @DF-RHF Final Energy:  -377.64403397406795
    Total Energy =                       -377.6440339740679519
  //            Monomer A HF           //
    Molecular point group: c1
  Multiplicity = 1
  Basis Set: AUG-CC-PVTZ
    Blend: AUG-CC-PVTZ
  Basis Set: (AUG-CC-PVTZ AUX)
    Blend: AUG-CC-PVTZ-JKFIT
  @DF-RHF Final Energy:  -188.84167083885191
    Total Energy =                       -188.8416708388519112
  //            Monomer B HF           //
    Molecular point group: c1

    Geometry (in Angstrom), charge = 0, multiplicity = 1:

       Center              X                  Y                   Z               Mass
    ------------   -----------------  -----------------  -----------------  -----------------
      Gh(C)           1.635017744043    -0.171551809567     0.000000989047    12.000000000000
      Gh(H)           2.723401744043    -0.250758809567    -0.000001010953     1.007825032230
      Gh(O)           0.910159744043    -1.151939809567    -0.000000010953    15.994914619570
      Gh(O)           1.247399744043     1.085329190433    -0.000000010953    15.994914619570
      Gh(H)           0.253969744043     1.118190190433     0.000000989047     1.007825032230
         C           -1.635027755957     0.171526990433    -0.000001010953    12.000000000000
         H           -2.723417755957     0.250668990433    -0.000000010953     1.007825032230
         O           -0.910228755957     1.151958990433    -0.000000010953    15.994914619570
         O           -1.247327755957    -1.085328009567    -0.000000010953    15.994914619570
         H           -0.253881755957    -1.118128009567     0.000000989047     1.007825032230

  Charge       = 0
  Multiplicity = 1
  Basis Set: AUG-CC-PVTZ
    Blend: AUG-CC-PVTZ
  Basis Set: (AUG-CC-PVTZ AUX)
    Blend: AUG-CC-PVTZ-JKFIT

    Orbital Energies [Eh]
    ---------------------

    Doubly Occupied:

       1A    -20.638235     2A    -20.561593     3A    -11.396481
       4A     -1.482677     5A     -1.369327     6A     -0.901937
       7A     -0.731302     8A     -0.712038     9A     -0.644324
      10A     -0.597414    11A     -0.490997    12A     -0.470871

  @DF-RHF Final Energy:  -188.84166965004522

   => Energetics <=

    Nuclear Repulsion Energy =             70.1580372184758971
    One-Electron Energy =                -398.0050188004105394
    Two-Electron Energy =                 139.0053119318894232
    Total Energy =                       -188.8416696500452190

  Dipole Moment: [D]
     X:    -0.4954      Y:    -1.9978      Z:    -0.0000     Total:     2.0583

    SAPT Results
  --------------------------------------------------------------------------------------------------------
    Electrostatics               -145.56966003 [mEh]     -91.34634076 [kcal/mol]    -382.19308975 [kJ/mol]
      Elst10,r                   -146.89081609 [mEh]     -92.17537871 [kcal/mol]    -385.66178452 [kJ/mol]
      Elst12,r                      1.32115606 [mEh]       0.82903795 [kcal/mol]       3.46869476 [kJ/mol]

    Exchange                      343.51384512 [mEh]     215.55819219 [kcal/mol]     901.89547611 [kJ/mol]
      Exch10                      324.37660436 [mEh]     203.54939231 [kcal/mol]     851.65065742 [kJ/mol]
      Exch10(S^2)                 300.74886003 [mEh]     188.72275890 [kcal/mol]     789.61602323 [kJ/mol]
      Exch11(S^2)                  -0.57507938 [mEh]      -0.36086776 [kcal/mol]      -1.50987070 [kJ/mol]
      Exch12(S^2)                  19.71232014 [mEh]      12.36966764 [kcal/mol]      51.75468939 [kJ/mol]

    Induction                    -149.19602749 [mEh]     -93.62192070 [kcal/mol]    -391.71411621 [kJ/mol]
      Ind20,r                    -202.25331776 [mEh]    -126.91587300 [kcal/mol]    -531.01601263 [kJ/mol]
      Ind22                       -25.98595381 [mEh]     -16.30643220 [kcal/mol]     -68.22611233 [kJ/mol]
      Exch-Ind20,r                116.50795418 [mEh]      73.10984502 [kcal/mol]     305.89159157 [kJ/mol]
      Exch-Ind22                   14.96919976 [mEh]       9.39331466 [kcal/mol]      39.30162856 [kJ/mol]
      delta HF,r (2)              -52.43390986 [mEh]     -32.90277519 [kcal/mol]    -137.66521138 [kJ/mol]

    Dispersion                    -46.98963462 [mEh]     -29.48644089 [kcal/mol]    -123.37126869 [kJ/mol]
      Disp20                      -57.02837653 [mEh]     -35.78584655 [kcal/mol]    -149.72798196 [kJ/mol]
      Disp21                        8.08193237 [mEh]       5.07148913 [kcal/mol]      21.21911051 [kJ/mol]
      Disp22 (SDQ)                 -2.19526986 [mEh]      -1.37755263 [kcal/mol]      -5.76368021 [kJ/mol]
      Disp22 (T)                   -8.57049991 [mEh]      -5.37806989 [kcal/mol]     -22.50184440 [kJ/mol]
      Est. Disp22 (T)              -9.41686509 [mEh]      -5.90917206 [kcal/mol]     -24.72397590 [kJ/mol]
      Exch-Disp20                  13.56894450 [mEh]       8.51464122 [kcal/mol]      35.62525887 [kJ/mol]

  Total HF                         39.30651483 [mEh]      24.66521044 [kcal/mol]     103.19924047 [kJ/mol]
  Total SAPT0                      -4.15291721 [mEh]      -2.60599489 [kcal/mol]     -10.90348262 [kJ/mol]
  Total SAPT2                       5.28872557 [mEh]       3.31872540 [kcal/mol]      13.88554706 [kJ/mol]
  Total SAPT2+                      1.75852299 [mEh]       1.10348983 [kcal/mol]       4.61700146 [kJ/mol]

  Special recipe for scaled SAPT0 (see Manual):
    Electrostatics sSAPT0        -146.89081609 [mEh]     -92.17537871 [kcal/mol]    -385.66178452 [kJ/mol]
    Exchange sSAPT0               324.37660436 [mEh]     203.54939231 [kcal/mol]     851.65065742 [kJ/mol]
    Induction sSAPT0             -108.50580758 [mEh]     -68.08842221 [kcal/mol]    -284.88195855 [kJ/mol]
    Dispersion sSAPT0             -40.00355115 [mEh]     -25.10260733 [kcal/mol]    -105.02930908 [kJ/mol]
  Total sSAPT0                     28.97642954 [mEh]      18.18298405 [kcal/mol]      76.07760527 [kJ/mol]
  --------------------------------------------------------------------------------------------------------

*** Psi4 exiting successfully. Buy a developer a beer!
