                               Psi4 1.3.2 release

  ==> Input File <==

--------------------------------------------------------------------------
#psi4
#
memory 32 gb

molecule  {
0 1
  C        2.0083120    -0.3372920     0.0000040
  H        3.1030340    -0.4288200    -0.0000030
  O        1.2864570    -1.3299810     0.0000000
  N        1.5810970     0.9343630     0.0000010
  H        0.5827550     1.1459700     0.0000010
  H        1.9654126     1.7182408    -0.0000031
--
0 1
  C       -2.2950674     0.3768538     0.0000009
  H       -3.3897894     0.4683818    -0.0000010
  O       -1.5732124     1.3695428    -0.0000001
  N       -1.8678524    -0.8948012    -0.0000001
  H       -0.8695104    -1.1064082    -0.0000001
  H       -2.5389234    -1.6391172    -0.0000010
units angstrom
no_reorient  #important for SAPT in psi4, default
symmetry c1  #important for SAPT in psi4, default
}

set {
basis aug-cc-pVTZ
scf_type DF
freeze_core True
}
energy('sapt2+')
--------------------------------------------------------------------------

  //              Dimer HF             //
    Molecular point group: c1
  Charge       = 0
  Multiplicity = 1
  Basis Set: AUG-CC-PVTZ
    Blend: AUG-CC-PVTZ
  Basis Set: (AUG-CC-PVTZ AUX)
    Blend: AUG-CC-PVTZ-JKFIT
  @DF-RHF Final Energy:  -337.99950199583020
    Total Energy =                       -337.9995019958302009
  //            Monomer A HF           //
    Molecular point group: c1
  Multiplicity = 1
  Basis Set: AUG-CC-PVTZ
    Blend: AUG-CC-PVTZ
  Basis Set: (AUG-CC-PVTZ AUX)
    Blend: AUG-CC-PVTZ-JKFIT
  @DF-RHF Final Energy:  -168.97810622653253
    Total Energy =                       -168.9781062265325318
  //            Monomer B HF           //
    Molecular point group: c1

    Geometry (in Angstrom), charge = 0, multiplicity = 1:

       Center              X                  Y                   Z               Mass
    ------------   -----------------  -----------------  -----------------  -----------------
      Gh(C)           2.154899272128    -0.357515704044     0.000003305365    12.000000000000
      Gh(H)           3.249621272128    -0.449043704044    -0.000003694635     1.007825032230
      Gh(O)           1.433044272128    -1.350204704044    -0.000000694635    15.994914619570
      Gh(N)           1.727684272128     0.914139295956     0.000000305365    14.003074004430
      Gh(H)           0.729342272128     1.125746295956     0.000000305365     1.007825032230
      Gh(H)           2.111999872128     1.698017095956    -0.000003794635     1.007825032230
         C           -2.148480127872     0.356630095956     0.000000205365    12.000000000000
         H           -3.243202127872     0.448158095956    -0.000001694635     1.007825032230
         O           -1.426625127872     1.349319095956    -0.000000794635    15.994914619570
         N           -1.721265127872    -0.915024904044    -0.000000794635    14.003074004430
         H           -0.722923127872    -1.126631904044    -0.000000794635     1.007825032230
         H           -2.392336127872    -1.659340904044    -0.000001694635     1.007825032230

  Charge       = 0
  Multiplicity = 1
  Basis Set: AUG-CC-PVTZ
    Blend: AUG-CC-PVTZ
  Basis Set: (AUG-CC-PVTZ AUX)
    Blend: AUG-CC-PVTZ-JKFIT

    Orbital Energies [Eh]
    ---------------------

    Doubly Occupied:

       1A    -20.526944     2A    -15.602099     3A    -11.356554
       4A     -1.376938     5A     -1.227381     6A     -0.854911
       7A     -0.756209     8A     -0.677331     9A     -0.603169
      10A     -0.571950    11A     -0.435227    12A     -0.422136

  @DF-RHF Final Energy:  -169.00324442067313

   => Energetics <=

    Nuclear Repulsion Energy =             71.1611145121242714
    One-Electron Energy =                -371.5070191508005450
    Two-Electron Energy =                 131.3426602180031750
    Total Energy =                       -169.0032444206731270

  Dipole Moment: [D]
     X:    -1.5821      Y:    -4.1739      Z:    -0.0000     Total:     4.4637

    SAPT Results
  --------------------------------------------------------------------------------------------------------
    Electrostatics                -22.97610310 [mEh]     -14.41772237 [kcal/mol]     -60.32375039 [kJ/mol]
      Elst10,r                    -24.44255507 [mEh]     -15.33793487 [kcal/mol]     -64.17391950 [kJ/mol]
      Elst12,r                      1.46645197 [mEh]       0.92021250 [kcal/mol]       3.85016911 [kJ/mol]

    Exchange                       15.47807359 [mEh]       9.71263781 [kcal/mol]      40.63767661 [kJ/mol]
      Exch10                       12.91382484 [mEh]       8.10354743 [kcal/mol]      33.90524245 [kJ/mol]
      Exch10(S^2)                  12.84779217 [mEh]       8.06211130 [kcal/mol]      33.73187368 [kJ/mol]
      Exch11(S^2)                   0.02482208 [mEh]       0.01557609 [kcal/mol]       0.06517035 [kJ/mol]
      Exch12(S^2)                   2.53942667 [mEh]       1.59351429 [kcal/mol]       6.66726381 [kJ/mol]

    Induction                      -7.19016766 [mEh]      -4.51189833 [kcal/mol]     -18.87778260 [kJ/mol]
      Ind20,r                      -7.45164859 [mEh]      -4.67598008 [kcal/mol]     -19.56430067 [kJ/mol]
      Ind22                        -0.97292815 [mEh]      -0.61052163 [kcal/mol]      -2.55442250 [kJ/mol]
      Exch-Ind20,r                  3.10479344 [mEh]       1.94828730 [kcal/mol]       8.15163405 [kJ/mol]
      Exch-Ind22                    0.40537888 [mEh]       0.25437908 [kcal/mol]       1.06432209 [kJ/mol]
      delta HF,r (2)               -2.27576324 [mEh]      -1.42806300 [kcal/mol]      -5.97501557 [kJ/mol]

    Dispersion                     -7.27394455 [mEh]      -4.56446912 [kcal/mol]     -19.09773878 [kJ/mol]
      Disp20                       -7.18454942 [mEh]      -4.50837282 [kcal/mol]     -18.86303189 [kJ/mol]
      Disp21                        0.38565359 [mEh]       0.24200128 [kcal/mol]       1.01253335 [kJ/mol]
      Disp22 (SDQ)                 -0.10162458 [mEh]      -0.06377038 [kcal/mol]      -0.26681529 [kJ/mol]
      Disp22 (T)                   -1.24577890 [mEh]      -0.78173806 [kcal/mol]      -3.27079205 [kJ/mol]
      Est. Disp22 (T)              -1.41773751 [mEh]      -0.88964372 [kcal/mol]      -3.72226933 [kJ/mol]
      Exch-Disp20                   1.04431337 [mEh]       0.65531653 [kcal/mol]       2.74184438 [kJ/mol]

  Total HF                        -18.15134862 [mEh]     -11.39014322 [kcal/mol]     -47.65635925 [kJ/mol]
  Total SAPT0                     -24.29158467 [mEh]     -15.24319951 [kcal/mol]     -63.77754676 [kJ/mol]
  Total SAPT2                     -20.82843322 [mEh]     -13.07003917 [kcal/mol]     -54.68504390 [kJ/mol]
  Total SAPT2+                    -21.96214173 [mEh]     -13.78145200 [kcal/mol]     -57.66159516 [kJ/mol]

  Special recipe for scaled SAPT0 (see Manual):
    Electrostatics sSAPT0         -24.44255507 [mEh]     -15.33793487 [kcal/mol]     -64.17391950 [kJ/mol]
    Exchange sSAPT0                12.91382484 [mEh]       8.10354743 [kcal/mol]      33.90524245 [kJ/mol]
    Induction sSAPT0               -6.57449962 [mEh]      -4.12556080 [kcal/mol]     -17.26134637 [kJ/mol]
    Dispersion sSAPT0              -6.12405105 [mEh]      -3.84290005 [kcal/mol]     -16.07869381 [kJ/mol]
  Total sSAPT0                    -24.22728090 [mEh]     -15.20284829 [kcal/mol]     -63.60871723 [kJ/mol]
  --------------------------------------------------------------------------------------------------------

*** Psi4 exiting successfully. Buy a developer a beer!
