                               Psi4 1.3.2 release

  ==> Input File <==

--------------------------------------------------------------------------
#psi4
#
memory 32 gb

molecule  {
0 1
  C        2.1022740    -0.1999910     0.0000010
  H        3.1931760    -0.2048250     0.0000000
  N        1.3929100    -1.2773340     0.0000000
  H        2.0119970    -2.0793170    -0.0000010
  N        1.5658380     1.0343930     0.0000000
  H        0.5512430     1.1716950     0.0000000
  H        2.1722770     1.8295020    -0.0000010
--
0 1
  C       -2.1022740     0.1999910     0.0000000
  H       -3.1931760     0.2048250     0.0000000
  N       -1.3929100     1.2773340     0.0000000
  H       -2.0119970     2.0793170     0.0000000
  N       -1.5658380    -1.0343930     0.0000000
  H       -0.5512430    -1.1716950     0.0000000
  H       -2.1722770    -1.8295020     0.0000000
units angstrom
no_reorient  #important for SAPT in psi4, default
symmetry c1  #important for SAPT in psi4, default
}

set {
basis aug-cc-pVTZ
scf_type DF
freeze_core True
}
energy('sapt2+')
--------------------------------------------------------------------------

  //              Dimer HF             //
    Molecular point group: c1
  Charge       = 0
  Multiplicity = 1
  Basis Set: AUG-CC-PVTZ
    Blend: AUG-CC-PVTZ
  Basis Set: (AUG-CC-PVTZ AUX)
    Blend: AUG-CC-PVTZ-JKFIT
  @DF-RHF Final Energy:  -298.30316115018525
    Total Energy =                       -298.3031611501852467
  //            Monomer A HF           //
    Molecular point group: c1
  Multiplicity = 1
  Basis Set: AUG-CC-PVTZ
    Blend: AUG-CC-PVTZ
  Basis Set: (AUG-CC-PVTZ AUX)
    Blend: AUG-CC-PVTZ-JKFIT
  @DF-RHF Final Energy:  -149.14310306030754
    Total Energy =                       -149.1431030603075385
  //            Monomer B HF           //
    Molecular point group: c1

    Geometry (in Angstrom), charge = 0, multiplicity = 1:

       Center              X                  Y                   Z               Mass
    ------------   -----------------  -----------------  -----------------  -----------------
      Gh(C)           2.102274000000    -0.199991000000     0.000000886638    12.000000000000
      Gh(H)           3.193176000000    -0.204825000000    -0.000000113362     1.007825032230
      Gh(N)           1.392910000000    -1.277334000000    -0.000000113362    14.003074004430
      Gh(H)           2.011997000000    -2.079317000000    -0.000001113362     1.007825032230
      Gh(N)           1.565838000000     1.034393000000    -0.000000113362    14.003074004430
      Gh(H)           0.551243000000     1.171695000000    -0.000000113362     1.007825032230
      Gh(H)           2.172277000000     1.829502000000    -0.000001113362     1.007825032230
         C           -2.102274000000     0.199991000000    -0.000000113362    12.000000000000
         H           -3.193176000000     0.204825000000    -0.000000113362     1.007825032230
         N           -1.392910000000     1.277334000000    -0.000000113362    14.003074004430
         H           -2.011997000000     2.079317000000    -0.000000113362     1.007825032230
         N           -1.565838000000    -1.034393000000    -0.000000113362    14.003074004430
         H           -0.551243000000    -1.171695000000    -0.000000113362     1.007825032230
         H           -2.172277000000    -1.829502000000    -0.000000113362     1.007825032230

  Charge       = 0
  Multiplicity = 1
  Basis Set: AUG-CC-PVTZ
    Blend: AUG-CC-PVTZ
  Basis Set: (AUG-CC-PVTZ AUX)
    Blend: AUG-CC-PVTZ-JKFIT

    Orbital Energies [Eh]
    ---------------------

    Doubly Occupied:

       1A    -15.581654     2A    -15.519548     3A    -11.314763
       4A     -1.259000     5A     -1.137049     6A     -0.829938
       7A     -0.745812     8A     -0.639651     9A     -0.615822
      10A     -0.530067    11A     -0.419651    12A     -0.359458

  @DF-RHF Final Energy:  -149.14310306032695

   => Energetics <=

    Nuclear Repulsion Energy =             72.1807086195704386
    One-Electron Energy =                -344.7427960371163067
    Two-Electron Energy =                 123.4189843572189034
    Total Energy =                       -149.1431030603269505

  Dipole Moment: [D]
     X:    -2.0902      Y:    -2.5220      Z:     0.0000     Total:     3.2756

    SAPT Results
  --------------------------------------------------------------------------------------------------------
    Electrostatics                -41.63193399 [mEh]     -26.12443299 [kcal/mol]    -109.30462764 [kJ/mol]
      Elst10,r                    -41.66233857 [mEh]     -26.14351215 [kcal/mol]    -109.38445484 [kJ/mol]
      Elst12,r                      0.03040458 [mEh]       0.01907916 [kcal/mol]       0.07982720 [kJ/mol]

    Exchange                       46.11848591 [mEh]      28.93978682 [kcal/mol]     121.08406808 [kJ/mol]
      Exch10                       41.81914787 [mEh]      26.24191147 [kcal/mol]     109.79615760 [kJ/mol]
      Exch10(S^2)                  41.17818049 [mEh]      25.83969837 [kcal/mol]     108.11329797 [kJ/mol]
      Exch11(S^2)                   0.53421486 [mEh]       0.33522488 [kcal/mol]       1.40258092 [kJ/mol]
      Exch12(S^2)                   3.76512318 [mEh]       2.36265047 [kcal/mol]       9.88532956 [kJ/mol]

    Induction                     -18.13583211 [mEh]     -11.38040646 [kcal/mol]     -47.61562064 [kJ/mol]
      Ind20,r                     -20.97073431 [mEh]     -13.15933445 [kcal/mol]     -55.05865535 [kJ/mol]
      Ind22                        -2.19773783 [mEh]      -1.37910131 [kcal/mol]      -5.77015988 [kJ/mol]
      Exch-Ind20,r                 11.19982798 [mEh]       7.02799816 [kcal/mol]      29.40514430 [kJ/mol]
      Exch-Ind22                    1.17374457 [mEh]       0.73653584 [kcal/mol]       3.08166596 [kJ/mol]
      delta HF,r (2)               -7.34093252 [mEh]      -4.60650470 [kcal/mol]     -19.27361567 [kJ/mol]

    Dispersion                    -13.78587686 [mEh]      -8.65076833 [kcal/mol]     -36.19481471 [kJ/mol]
      Disp20                      -15.41460459 [mEh]      -9.67281042 [kcal/mol]     -40.47103878 [kJ/mol]
      Disp21                        1.04906949 [mEh]       0.65830104 [kcal/mol]       2.75433156 [kJ/mol]
      Disp22 (SDQ)                  0.22139748 [mEh]       0.13892901 [kcal/mol]       0.58127899 [kJ/mol]
      Disp22 (T)                   -2.38449103 [mEh]      -1.49629071 [kcal/mol]      -6.26048033 [kJ/mol]
      Est. Disp22 (T)              -2.73447929 [mEh]      -1.71591166 [kcal/mol]      -7.17937438 [kJ/mol]
      Exch-Disp20                   3.09274006 [mEh]       1.94072369 [kcal/mol]       8.11998790 [kJ/mol]

  Total HF                        -16.95502955 [mEh]     -10.63944167 [kcal/mol]     -44.51542395 [kJ/mol]
  Total SAPT0                     -29.27689409 [mEh]     -18.37152840 [kcal/mol]     -76.86647483 [kJ/mol]
  Total SAPT2                     -25.97114472 [mEh]     -16.29713936 [kcal/mol]     -68.18723108 [kJ/mol]
  Total SAPT2+                    -27.43515705 [mEh]     -17.21582096 [kcal/mol]     -72.03099490 [kJ/mol]

  Special recipe for scaled SAPT0 (see Manual):
    Electrostatics sSAPT0         -41.66233857 [mEh]     -26.14351215 [kcal/mol]    -109.38445484 [kJ/mol]
    Exchange sSAPT0                41.81914787 [mEh]      26.24191147 [kcal/mol]     109.79615760 [kJ/mol]
    Induction sSAPT0              -16.58065612 [mEh]     -10.40451880 [kcal/mol]     -43.53250665 [kJ/mol]
    Dispersion sSAPT0             -12.17518281 [mEh]      -7.64004256 [kcal/mol]     -31.96593806 [kJ/mol]
  Total sSAPT0                    -28.59902963 [mEh]     -17.94616203 [kcal/mol]     -75.08674195 [kJ/mol]
  --------------------------------------------------------------------------------------------------------

*** Psi4 exiting successfully. Buy a developer a beer!
