                               Psi4 1.3.2 release

  ==> Input File <==

--------------------------------------------------------------------------
#psi4
#
memory 32 gb

molecule  {
0 1
  C        2.0083120    -0.3372920     0.0000040
  H        3.1030340    -0.4288200    -0.0000030
  O        1.2864570    -1.3299810     0.0000000
  N        1.5810970     0.9343630     0.0000010
  H        0.5827550     1.1459700     0.0000010
  H        2.8256788     1.5995554    -0.0000029
--
0 1
  C       -1.4348012     0.2581684     0.0000011
  H       -2.5295232     0.3496964    -0.0000009
  O       -0.7129462     1.2508574     0.0000001
  N       -1.0075862    -1.0134866     0.0000001
  H       -0.0092442    -1.2250936     0.0000001
  H       -1.6786572    -1.7578026    -0.0000009
units angstrom
no_reorient  #important for SAPT in psi4, default
symmetry c1  #important for SAPT in psi4, default
}

set {
basis aug-cc-pVTZ
scf_type DF
freeze_core True
}
energy('sapt2+')
--------------------------------------------------------------------------

  //              Dimer HF             //
    Molecular point group: c1
  Charge       = 0
  Multiplicity = 1
  Basis Set: AUG-CC-PVTZ
    Blend: AUG-CC-PVTZ
  Basis Set: (AUG-CC-PVTZ AUX)
    Blend: AUG-CC-PVTZ-JKFIT
  @DF-RHF Final Energy:  -337.88542795004690
    Total Energy =                       -337.8854279500469033
  //            Monomer A HF           //
    Molecular point group: c1
  Multiplicity = 1
  Basis Set: AUG-CC-PVTZ
    Blend: AUG-CC-PVTZ
  Basis Set: (AUG-CC-PVTZ AUX)
    Blend: AUG-CC-PVTZ-JKFIT
  @DF-RHF Final Energy:  -168.90691351149587
    Total Energy =                       -168.9069135114958726
  //            Monomer B HF           //
    Molecular point group: c1

    Geometry (in Angstrom), charge = 0, multiplicity = 1:

       Center              X                  Y                   Z               Mass
    ------------   -----------------  -----------------  -----------------  -----------------
      Gh(C)           1.715137455744    -0.296844591913     0.000003205365    12.000000000000
      Gh(H)           2.809859455744    -0.388372591913    -0.000003794635     1.007825032230
      Gh(O)           0.993282455744    -1.289533591913    -0.000000794635    15.994914619570
      Gh(N)           1.287922455744     0.974810408087     0.000000205365    14.003074004430
      Gh(H)           0.289580455744     1.186417408087     0.000000205365     1.007825032230
      Gh(H)           2.532504255744     1.640002808087    -0.000003694635     1.007825032230
         C           -1.727975744256     0.298615808087     0.000000305365    12.000000000000
         H           -2.822697744256     0.390143808087    -0.000001694635     1.007825032230
         O           -1.006120744256     1.291304808087    -0.000000694635    15.994914619570
         N           -1.300760744256    -0.973039191913    -0.000000694635    14.003074004430
         H           -0.302418744256    -1.184646191913    -0.000000694635     1.007825032230
         H           -1.971831744256    -1.717355191913    -0.000001694635     1.007825032230

  Charge       = 0
  Multiplicity = 1
  Basis Set: AUG-CC-PVTZ
    Blend: AUG-CC-PVTZ
  Basis Set: (AUG-CC-PVTZ AUX)
    Blend: AUG-CC-PVTZ-JKFIT

    Orbital Energies [Eh]
    ---------------------

    Doubly Occupied:

       1A    -20.526892     2A    -15.602048     3A    -11.356531
       4A     -1.376895     5A     -1.227341     6A     -0.854884
       7A     -0.756179     8A     -0.677314     9A     -0.603145
      10A     -0.571922    11A     -0.435206    12A     -0.422107

  @DF-RHF Final Energy:  -169.00344973572123

   => Energetics <=

    Nuclear Repulsion Energy =             71.1611145121232624
    One-Electron Energy =                -371.5081984125634449
    Two-Electron Energy =                 131.3436341647189352
    Total Energy =                       -169.0034497357212331

  Dipole Moment: [D]
     X:    -1.5806      Y:    -4.1732      Z:    -0.0000     Total:     4.4625

    SAPT Results
  --------------------------------------------------------------------------------------------------------
    Electrostatics               -122.77120453 [mEh]     -77.04009395 [kcal/mol]    -322.33575307 [kJ/mol]
      Elst10,r                   -124.69866095 [mEh]     -78.24959111 [kcal/mol]    -327.39628922 [kJ/mol]
      Elst12,r                      1.92745643 [mEh]       1.20949717 [kcal/mol]       5.06053615 [kJ/mol]

    Exchange                      256.38749538 [mEh]     160.88558231 [kcal/mol]     673.14527638 [kJ/mol]
      Exch10                      242.12150335 [mEh]     151.93353716 [kcal/mol]     635.68991947 [kJ/mol]
      Exch10(S^2)                 227.62224962 [mEh]     142.83511808 [kcal/mol]     597.62213405 [kJ/mol]
      Exch11(S^2)                   0.95395585 [mEh]       0.59861633 [kcal/mol]       2.50461074 [kJ/mol]
      Exch12(S^2)                  13.31203618 [mEh]       8.35342882 [kcal/mol]      34.95074618 [kJ/mol]

    Induction                     -98.51611935 [mEh]     -61.81979821 [kcal/mol]    -258.65403572 [kJ/mol]
      Ind20,r                    -129.34884176 [mEh]     -81.16762363 [kcal/mol]    -339.60533725 [kJ/mol]
      Ind22                       -14.95361590 [mEh]      -9.38353564 [kcal/mol]     -39.26071314 [kJ/mol]
      Exch-Ind20,r                 77.20164970 [mEh]      48.44476658 [kcal/mol]     202.69290337 [kJ/mol]
      Exch-Ind22                    8.92504178 [mEh]       5.60054827 [kcal/mol]      23.43269396 [kJ/mol]
      delta HF,r (2)              -40.34035317 [mEh]     -25.31395379 [kcal/mol]    -105.91358266 [kJ/mol]

    Dispersion                    -39.23187739 [mEh]     -24.61837473 [kcal/mol]    -103.00327989 [kJ/mol]
      Disp20                      -48.27026759 [mEh]     -30.29005022 [kcal/mol]    -126.73357011 [kJ/mol]
      Disp21                        6.44928347 [mEh]       4.04698648 [kcal/mol]      16.93259142 [kJ/mol]
      Disp22 (SDQ)                 -0.89012520 [mEh]      -0.55856200 [kcal/mol]      -2.33702339 [kJ/mol]
      Disp22 (T)                   -7.17743458 [mEh]      -4.50390820 [kcal/mol]     -18.84435190 [kJ/mol]
      Est. Disp22 (T)              -7.92872488 [mEh]      -4.97534998 [kcal/mol]     -20.81686431 [kJ/mol]
      Exch-Disp20                  11.40795682 [mEh]       7.15860098 [kcal/mol]      29.95158650 [kJ/mol]

  Total HF                         24.93529717 [mEh]      15.64713521 [kcal/mol]      65.46761370 [kJ/mol]
  Total SAPT0                     -11.92701361 [mEh]      -7.48431403 [kcal/mol]     -31.31436991 [kJ/mol]
  Total SAPT2                      -1.76213927 [mEh]      -1.10575909 [kcal/mol]      -4.62649602 [kJ/mol]
  Total SAPT2+                     -4.13170588 [mEh]      -2.59268458 [kcal/mol]     -10.84779230 [kJ/mol]

  Special recipe for scaled SAPT0 (see Manual):
    Electrostatics sSAPT0        -124.69866095 [mEh]     -78.24959111 [kcal/mol]    -327.39628922 [kJ/mol]
    Exchange sSAPT0               242.12150335 [mEh]     151.93353716 [kcal/mol]     635.68991947 [kJ/mol]
    Induction sSAPT0              -76.77490066 [mEh]     -48.17697751 [kcal/mol]    -201.57247392 [kJ/mol]
    Dispersion sSAPT0             -34.54047994 [mEh]     -21.67447839 [kcal/mol]     -90.68601759 [kJ/mol]
  Total sSAPT0                      6.10746179 [mEh]       3.83249014 [kcal/mol]      16.03513873 [kJ/mol]
  --------------------------------------------------------------------------------------------------------

*** Psi4 exiting successfully. Buy a developer a beer!
