                               Psi4 1.3.2 release

  ==> Input File <==

--------------------------------------------------------------------------
#psi4
#
memory 32 gb

molecule  {
0 1
  C       -2.0482690     0.2828850     0.0000130
  H       -3.1457830     0.3491130    -0.0000080
  O       -1.3512910     1.2933720    -0.0000010
  N       -1.5923150    -0.9782630     0.0000040
  H       -0.5837530    -1.1752650     0.0000030
  H       -2.2528990    -1.7321960    -0.0000070
--
0 1
  C        2.0621080    -0.2554320     0.0000040
  H        3.1520200    -0.2817000     0.0000000
  N        1.3302020    -1.3170910     0.0000020
  H        1.9299670    -2.1334100    -0.0000040
  N        1.5499330     0.9895100     0.0000000
  H        0.5432930     1.1394860    -0.0000010
  H        2.1658200     1.7770630    -0.0000050
units angstrom
no_reorient  #important for SAPT in psi4, default
symmetry c1  #important for SAPT in psi4, default
}

set {
basis aug-cc-pVTZ
scf_type DF
freeze_core True
}
energy('sapt2+')
--------------------------------------------------------------------------

  //              Dimer HF             //
    Molecular point group: c1
  Charge       = 0
  Multiplicity = 1
  Basis Set: AUG-CC-PVTZ
    Blend: AUG-CC-PVTZ
  Basis Set: (AUG-CC-PVTZ AUX)
    Blend: AUG-CC-PVTZ-JKFIT
  @DF-RHF Final Energy:  -318.16487586282790
    Total Energy =                       -318.1648758628278983
  //            Monomer A HF           //
    Molecular point group: c1
  Multiplicity = 1
  Basis Set: AUG-CC-PVTZ
    Blend: AUG-CC-PVTZ
  Basis Set: (AUG-CC-PVTZ AUX)
    Blend: AUG-CC-PVTZ-JKFIT
  @DF-RHF Final Energy:  -169.00279090762876
    Total Energy =                       -169.0027909076287642
  //            Monomer B HF           //
    Molecular point group: c1

    Geometry (in Angstrom), charge = 0, multiplicity = 1:

       Center              X                  Y                   Z               Mass
    ------------   -----------------  -----------------  -----------------  -----------------
      Gh(C)          -2.030399260614     0.275496899830     0.000010194538    12.000000000000
      Gh(H)          -3.127913260614     0.341724899830    -0.000010805462     1.007825032230
      Gh(O)          -1.333421260614     1.285983899830    -0.000003805462    15.994914619570
      Gh(N)          -1.574445260614    -0.985651100170     0.000001194538    14.003074004430
      Gh(H)          -0.565883260614    -1.182653100170     0.000000194538     1.007825032230
      Gh(H)          -2.235029260614    -1.739584100170    -0.000009805462     1.007825032230
         C            2.079977739386    -0.262820100170     0.000001194538    12.000000000000
         H            3.169889739386    -0.289088100170    -0.000002805462     1.007825032230
         N            1.348071739386    -1.324479100170    -0.000000805462    14.003074004430
         H            1.947836739386    -2.140798100170    -0.000006805462     1.007825032230
         N            1.567802739386     0.982121899830    -0.000002805462    14.003074004430
         H            0.561162739386     1.132097899830    -0.000003805462     1.007825032230
         H            2.183689739386     1.769674899830    -0.000007805462     1.007825032230

  Charge       = 0
  Multiplicity = 1
  Basis Set: AUG-CC-PVTZ
    Blend: AUG-CC-PVTZ
  Basis Set: (AUG-CC-PVTZ AUX)
    Blend: AUG-CC-PVTZ-JKFIT

    Orbital Energies [Eh]
    ---------------------

    Doubly Occupied:

       1A    -15.580938     2A    -15.519598     3A    -11.314716
       4A     -1.259449     5A     -1.137357     6A     -0.830838
       7A     -0.746505     8A     -0.640068     9A     -0.616576
      10A     -0.530114    11A     -0.419654    12A     -0.359598

  @DF-RHF Final Energy:  -149.14354834870079

   => Energetics <=

    Nuclear Repulsion Energy =             72.2208400742530472
    One-Electron Energy =                -344.8179487792058353
    Two-Electron Energy =                 123.4535603562520123
    Total Energy =                       -149.1435483487007900

  Dipole Moment: [D]
     X:     2.1434      Y:     2.4668      Z:    -0.0000     Total:     3.2679

    SAPT Results
  --------------------------------------------------------------------------------------------------------
    Electrostatics                -40.28445508 [mEh]     -25.27887721 [kcal/mol]    -105.76682224 [kJ/mol]
      Elst10,r                    -40.97629882 [mEh]     -25.71301571 [kcal/mol]    -107.58325773 [kJ/mol]
      Elst12,r                      0.69184374 [mEh]       0.43413850 [kcal/mol]       1.81643549 [kJ/mol]

    Exchange                       43.48658244 [mEh]      27.28824246 [kcal/mol]     114.17400646 [kJ/mol]
      Exch10                       38.78428066 [mEh]      24.33750355 [kcal/mol]     101.82811484 [kJ/mol]
      Exch10(S^2)                  38.23211502 [mEh]      23.99101438 [kcal/mol]     100.37840416 [kJ/mol]
      Exch11(S^2)                   0.36203653 [mEh]       0.22718136 [kcal/mol]       0.95052679 [kJ/mol]
      Exch12(S^2)                   4.34026525 [mEh]       2.72355756 [kcal/mol]      11.39536483 [kJ/mol]

    Induction                     -17.42569907 [mEh]     -10.93479125 [kcal/mol]     -45.75116660 [kJ/mol]
      Ind20,r                     -19.81243109 [mEh]     -12.43248821 [kcal/mol]     -52.01753067 [kJ/mol]
      Ind22                        -2.28303617 [mEh]      -1.43262683 [kcal/mol]      -5.99411064 [kJ/mol]
      Exch-Ind20,r                 10.43043698 [mEh]       6.54519802 [kcal/mol]      27.38510852 [kJ/mol]
      Exch-Ind22                    1.20192544 [mEh]       0.75421960 [kcal/mol]       3.15565480 [kJ/mol]
      delta HF,r (2)               -6.96259422 [mEh]      -4.36909384 [kcal/mol]     -18.28028861 [kJ/mol]

    Dispersion                    -13.13808801 [mEh]      -8.24427469 [kcal/mol]     -34.49404531 [kJ/mol]
      Disp20                      -14.31660113 [mEh]      -8.98380284 [kcal/mol]     -37.58823109 [kJ/mol]
      Disp21                        0.96321693 [mEh]       0.60442775 [kcal/mol]       2.52892569 [kJ/mol]
      Disp22 (SDQ)                  0.03282334 [mEh]       0.02059696 [kcal/mol]       0.08617767 [kJ/mol]
      Disp22 (T)                   -2.26524843 [mEh]      -1.42146485 [kcal/mol]      -5.94740894 [kJ/mol]
      Est. Disp22 (T)              -2.60269958 [mEh]      -1.63321864 [kcal/mol]      -6.83338681 [kJ/mol]
      Exch-Disp20                   2.78517244 [mEh]       1.74772209 [kcal/mol]       7.31246923 [kJ/mol]

  Total HF                        -18.53660650 [mEh]     -11.63189619 [kcal/mol]     -48.66785366 [kJ/mol]
  Total SAPT0                     -30.06803519 [mEh]     -18.86797694 [kcal/mol]     -78.94361552 [kJ/mol]
  Total SAPT2                     -25.75500041 [mEh]     -16.16150675 [kcal/mol]     -67.61974425 [kJ/mol]
  Total SAPT2+                    -27.36165972 [mEh]     -17.16970069 [kcal/mol]     -71.83802769 [kJ/mol]

  Special recipe for scaled SAPT0 (see Manual):
    Electrostatics sSAPT0         -40.97629882 [mEh]     -25.71301571 [kcal/mol]    -107.58325773 [kJ/mol]
    Exchange sSAPT0                38.78428066 [mEh]      24.33750355 [kcal/mol]     101.82811484 [kJ/mol]
    Induction sSAPT0              -15.88610665 [mEh]      -9.96868243 [kcal/mol]     -41.70896727 [kJ/mol]
    Dispersion sSAPT0             -11.40900328 [mEh]      -7.15925765 [kcal/mol]     -29.95433399 [kJ/mol]
  Total sSAPT0                    -29.48712810 [mEh]     -18.50345223 [kcal/mol]     -77.41844415 [kJ/mol]
  --------------------------------------------------------------------------------------------------------

*** Psi4 exiting successfully. Buy a developer a beer!
