                               Psi4 1.3.2 release

  ==> Input File <==

--------------------------------------------------------------------------
#psi4
#
memory 32 gb

molecule  {
0 1
  C       -2.0482690     0.2828850     0.0000130
  H       -3.1457830     0.3491130    -0.0000080
  O       -1.3512910     1.2933720    -0.0000010
  N       -1.5923150    -0.9782630     0.0000040
  H       -0.5837530    -1.1752650     0.0000030
  H       -2.2528990    -1.7321960    -0.0000070
--
0 1
  C        1.9165145    -0.2393647     0.0000040
  H        3.0064265    -0.2656327     0.0000000
  N        1.1846085    -1.3010237     0.0000020
  H        1.7843735    -2.1173428    -0.0000040
  N        1.4043395     1.0055772     0.0000000
  H        0.3976995     1.1555533    -0.0000010
  H        2.0202265     1.7931303    -0.0000050
units angstrom
no_reorient  #important for SAPT in psi4, default
symmetry c1  #important for SAPT in psi4, default
}

set {
basis aug-cc-pVTZ
scf_type DF
freeze_core True
}
energy('sapt2+')
--------------------------------------------------------------------------

  //              Dimer HF             //
    Molecular point group: c1
  Charge       = 0
  Multiplicity = 1
  Basis Set: AUG-CC-PVTZ
    Blend: AUG-CC-PVTZ
  Basis Set: (AUG-CC-PVTZ AUX)
    Blend: AUG-CC-PVTZ-JKFIT
  @DF-RHF Final Energy:  -318.16186979244276
    Total Energy =                       -318.1618697924427579
  //            Monomer A HF           //
    Molecular point group: c1
  Multiplicity = 1
  Basis Set: AUG-CC-PVTZ
    Blend: AUG-CC-PVTZ
  Basis Set: (AUG-CC-PVTZ AUX)
    Blend: AUG-CC-PVTZ-JKFIT
  @DF-RHF Final Energy:  -169.00282964548663
    Total Energy =                       -169.0028296454866279
  //            Monomer B HF           //
    Molecular point group: c1

    Geometry (in Angstrom), charge = 0, multiplicity = 1:

       Center              X                  Y                   Z               Mass
    ------------   -----------------  -----------------  -----------------  -----------------
      Gh(C)          -1.958406844901     0.267552030814     0.000010194538    12.000000000000
      Gh(H)          -3.055920844901     0.333780030814    -0.000010805462     1.007825032230
      Gh(O)          -1.261428844901     1.278039030814    -0.000003805462    15.994914619570
      Gh(N)          -1.502452844901    -0.993595969186     0.000001194538    14.003074004430
      Gh(H)          -0.493890844901    -1.190597969186     0.000000194538     1.007825032230
      Gh(H)          -2.163036844901    -1.747528969186    -0.000009805462     1.007825032230
         C            2.006376655099    -0.254697669186     0.000001194538    12.000000000000
         H            3.096288655099    -0.280965669186    -0.000002805462     1.007825032230
         N            1.274470655099    -1.316356669186    -0.000000805462    14.003074004430
         H            1.874235655099    -2.132675769186    -0.000006805462     1.007825032230
         N            1.494201655099     0.990244230814    -0.000002805462    14.003074004430
         H            0.487561655099     1.140220330814    -0.000003805462     1.007825032230
         H            2.110088655099     1.777797330814    -0.000007805462     1.007825032230

  Charge       = 0
  Multiplicity = 1
  Basis Set: AUG-CC-PVTZ
    Blend: AUG-CC-PVTZ
  Basis Set: (AUG-CC-PVTZ AUX)
    Blend: AUG-CC-PVTZ-JKFIT

    Orbital Energies [Eh]
    ---------------------

    Doubly Occupied:

       1A    -15.580936     2A    -15.519594     3A    -11.314717
       4A     -1.259447     5A     -1.137354     6A     -0.830837
       7A     -0.746503     8A     -0.640067     9A     -0.616574
      10A     -0.530112    11A     -0.419654    12A     -0.359596

  @DF-RHF Final Energy:  -149.14356956350701

   => Energetics <=

    Nuclear Repulsion Energy =             72.2208410031249173
    One-Electron Energy =                -344.8180338568068919
    Two-Electron Energy =                 123.4536232901749599
    Total Energy =                       -149.1435695635070147

  Dipole Moment: [D]
     X:     2.1433      Y:     2.4668      Z:    -0.0000     Total:     3.2678

    SAPT Results
  --------------------------------------------------------------------------------------------------------
    Electrostatics                -52.96991413 [mEh]     -33.23912294 [kcal/mol]    -139.07249040 [kJ/mol]
      Elst10,r                    -53.54035127 [mEh]     -33.59707765 [kcal/mol]    -140.57017288 [kJ/mol]
      Elst12,r                      0.57043713 [mEh]       0.35795470 [kcal/mol]       1.49768248 [kJ/mol]

    Exchange                       69.07199757 [mEh]      43.34333285 [kcal/mol]     181.34850464 [kJ/mol]
      Exch10                       62.79402653 [mEh]      39.40384654 [kcal/mol]     164.86569394 [kJ/mol]
      Exch10(S^2)                  61.45610647 [mEh]      38.56428903 [kcal/mol]     161.35298531 [kJ/mol]
      Exch11(S^2)                   0.65077788 [mEh]       0.40836928 [kcal/mol]       1.70861708 [kJ/mol]
      Exch12(S^2)                   5.62719317 [mEh]       3.53111702 [kcal/mol]      14.77419363 [kJ/mol]

    Induction                     -26.26243343 [mEh]     -16.47992578 [kcal/mol]     -68.95200948 [kJ/mol]
      Ind20,r                     -31.01455923 [mEh]     -19.46192974 [kcal/mol]     -81.42871403 [kJ/mol]
      Ind22                        -3.49660908 [mEh]      -2.19415532 [kcal/mol]      -9.18034587 [kJ/mol]
      Exch-Ind20,r                 17.37110926 [mEh]      10.90053563 [kcal/mol]      45.60784108 [kJ/mol]
      Exch-Ind22                    1.95843436 [mEh]       1.22893611 [kcal/mol]       5.14186869 [kJ/mol]
      delta HF,r (2)              -11.08080874 [mEh]      -6.95331246 [kcal/mol]     -29.09265935 [kJ/mol]

    Dispersion                    -17.26186013 [mEh]     -10.83198077 [kcal/mol]     -45.32100754 [kJ/mol]
      Disp20                      -19.53868644 [mEh]     -12.26071084 [kcal/mol]     -51.29881417 [kJ/mol]
      Disp21                        1.50524658 [mEh]       0.94455649 [kcal/mol]       3.95202435 [kJ/mol]
      Disp22 (SDQ)                  0.05642175 [mEh]       0.03540518 [kcal/mol]       0.14813528 [kJ/mol]
      Disp22 (T)                   -2.99929506 [mEh]      -1.88208607 [kcal/mol]      -7.87464810 [kJ/mol]
      Est. Disp22 (T)              -3.42431638 [mEh]      -2.14879097 [kcal/mol]      -8.99054141 [kJ/mol]
      Exch-Disp20                   4.13947435 [mEh]       2.59755937 [kcal/mol]      10.86818842 [kJ/mol]

  Total HF                        -15.47058345 [mEh]      -9.70793768 [kcal/mol]     -40.61801125 [kJ/mol]
  Total SAPT0                     -30.86979553 [mEh]     -19.37108915 [kcal/mol]     -81.04863700 [kJ/mol]
  Total SAPT2                     -25.55956208 [mEh]     -16.03886735 [kcal/mol]     -67.10662098 [kJ/mol]
  Total SAPT2+                    -27.42221013 [mEh]     -17.20769665 [kcal/mol]     -71.99700277 [kJ/mol]

  Special recipe for scaled SAPT0 (see Manual):
    Electrostatics sSAPT0         -53.54035127 [mEh]     -33.59707765 [kcal/mol]    -140.57017288 [kJ/mol]
    Exchange sSAPT0                62.79402653 [mEh]      39.40384654 [kcal/mol]     164.86569394 [kJ/mol]
    Induction sSAPT0              -23.56485586 [mEh]     -14.78717030 [kcal/mol]     -61.86952055 [kJ/mol]
    Dispersion sSAPT0             -15.12293045 [mEh]      -9.48978213 [kcal/mol]     -39.70524843 [kJ/mol]
  Total sSAPT0                    -29.43411105 [mEh]     -18.47018354 [kcal/mol]     -77.27924792 [kJ/mol]
  --------------------------------------------------------------------------------------------------------

*** Psi4 exiting successfully. Buy a developer a beer!
