                               Psi4 1.3.2 release

  ==> Input File <==

--------------------------------------------------------------------------
#psi4
#
memory 32 gb

molecule  {
0 1
  C       -1.9644470     0.1609890    -0.0000020
  H       -3.0589320     0.1627090    -0.0000040
  O       -1.3160380     1.1929960    -0.0000020
  O       -1.4968300    -1.0660630     0.0000020
  H       -0.4778920    -1.0649310     0.0000090
--
0 1
  C        1.1647502    -0.1509121    -0.0000031
  H        2.2465662    -0.2731371    -0.0000052
  N        0.3469592    -1.1482791    -0.0000012
  H        0.8575542    -2.0217841    -0.0000012
  N        0.7499002     1.1259119     0.0000018
  H       -0.2461168     1.3244449     0.0000008
  H        1.4168202     1.8705879     0.0000038
units angstrom
no_reorient  #important for SAPT in psi4, default
symmetry c1  #important for SAPT in psi4, default
}

set {
basis aug-cc-pVTZ
scf_type DF
freeze_core True
}
energy('sapt2+')
--------------------------------------------------------------------------

  //              Dimer HF             //
    Molecular point group: c1
  Charge       = 0
  Multiplicity = 1
  Basis Set: AUG-CC-PVTZ
    Blend: AUG-CC-PVTZ
  Basis Set: (AUG-CC-PVTZ AUX)
    Blend: AUG-CC-PVTZ-JKFIT
  @DF-RHF Final Energy:  -337.71717998609660
    Total Energy =                       -337.7171799860965962
  //            Monomer A HF           //
    Molecular point group: c1
  Multiplicity = 1
  Basis Set: AUG-CC-PVTZ
    Blend: AUG-CC-PVTZ
  Basis Set: (AUG-CC-PVTZ AUX)
    Blend: AUG-CC-PVTZ-JKFIT
  @DF-RHF Final Energy:  -188.83895552057490
    Total Energy =                       -188.8389555205748991
  //            Monomer B HF           //
    Molecular point group: c1

    Geometry (in Angstrom), charge = 0, multiplicity = 1:

       Center              X                  Y                   Z               Mass
    ------------   -----------------  -----------------  -----------------  -----------------
      Gh(C)          -1.537042336838     0.140600182369    -0.000001449450    12.000000000000
      Gh(H)          -2.631527336838     0.142320182369    -0.000003449450     1.007825032230
      Gh(O)          -0.888633336838     1.172607182369    -0.000001449450    15.994914619570
      Gh(O)          -1.069425336838    -1.086451817631     0.000002550550    15.994914619570
      Gh(H)          -0.050487336838    -1.085319817631     0.000009550550     1.007825032230
         C            1.592154863162    -0.171300917631    -0.000002549450    12.000000000000
         H            2.673970863162    -0.293525917631    -0.000004649450     1.007825032230
         N            0.774363863162    -1.168667917631    -0.000000649450    14.003074004430
         H            1.284958863162    -2.042172917631    -0.000000649450     1.007825032230
         N            1.177304863162     1.105523082369     0.000002350550    14.003074004430
         H            0.181287863162     1.304056082369     0.000001350550     1.007825032230
         H            1.844224863162     1.850199082369     0.000004350550     1.007825032230

  Charge       = 0
  Multiplicity = 1
  Basis Set: AUG-CC-PVTZ
    Blend: AUG-CC-PVTZ
  Basis Set: (AUG-CC-PVTZ AUX)
    Blend: AUG-CC-PVTZ-JKFIT

    Orbital Energies [Eh]
    ---------------------

    Doubly Occupied:

       1A    -15.580643     2A    -15.518131     3A    -11.313901
       4A     -1.260932     5A     -1.136061     6A     -0.830597
       7A     -0.749101     8A     -0.640555     9A     -0.618098
      10A     -0.530862    11A     -0.417505    12A     -0.358863

  @DF-RHF Final Energy:  -149.14391060762998

   => Energetics <=

    Nuclear Repulsion Energy =             72.3341927987205793
    One-Electron Energy =                -345.0457096788236981
    Two-Electron Energy =                 123.5676062724731139
    Total Energy =                       -149.1439106076299765

  Dipole Moment: [D]
     X:     2.3206      Y:     2.2610      Z:    -0.0000     Total:     3.2400

    SAPT Results
  --------------------------------------------------------------------------------------------------------
    Electrostatics               -211.71103389 [mEh]    -132.85067947 [kcal/mol]    -555.84724290 [kJ/mol]
      Elst10,r                   -211.26877926 [mEh]    -132.57316050 [kcal/mol]    -554.68610353 [kJ/mol]
      Elst12,r                     -0.44225463 [mEh]      -0.27751897 [kcal/mol]      -1.16113937 [kJ/mol]

    Exchange                      794.18817865 [mEh]     498.36060606 [kcal/mol]    2085.14077577 [kJ/mol]
      Exch10                      790.31646388 [mEh]     495.93106837 [kcal/mol]    2074.97559005 [kJ/mol]
      Exch10(S^2)                 647.90741865 [mEh]     406.56804333 [kcal/mol]    1701.08069330 [kJ/mol]
      Exch11(S^2)                  -2.17951637 [mEh]      -1.36766717 [kcal/mol]      -5.72231944 [kJ/mol]
      Exch12(S^2)                   6.05123114 [mEh]       3.79720487 [kcal/mol]      15.88750516 [kJ/mol]

    Induction                    -338.73545317 [mEh]    -212.55970597 [kcal/mol]    -889.34980978 [kJ/mol]
      Ind20,r                    -590.00421651 [mEh]    -370.23323543 [kcal/mol]   -1549.05585704 [kJ/mol]
      Ind22                       -46.06737328 [mEh]     -28.90771317 [kcal/mol]    -120.94987188 [kJ/mol]
      Exch-Ind20,r                265.02987537 [mEh]     166.30875763 [kcal/mol]     695.83584192 [kJ/mol]
      Exch-Ind22                   20.69346262 [mEh]      12.98534384 [kcal/mol]      54.33067862 [kJ/mol]
      delta HF,r (2)               11.61279863 [mEh]       7.28714116 [kcal/mol]      30.48939860 [kJ/mol]

    Dispersion                    -95.01212577 [mEh]     -59.62100904 [kcal/mol]    -249.45430184 [kJ/mol]
      Disp20                     -115.76496221 [mEh]     -72.64361052 [kcal/mol]    -303.94086640 [kJ/mol]
      Disp21                       21.29509410 [mEh]      13.36287329 [kcal/mol]      55.91026186 [kJ/mol]
      Disp22 (SDQ)                 -2.55385355 [mEh]      -1.60256730 [kcal/mol]      -6.70514156 [kJ/mol]
      Disp22 (T)                  -15.59669569 [mEh]      -9.78707431 [kcal/mol]     -40.94911890 [kJ/mol]
      Est. Disp22 (T)             -16.60484174 [mEh]     -10.41969551 [kcal/mol]     -43.59600599 [kJ/mol]
      Exch-Disp20                  18.61643763 [mEh]      11.68199098 [kcal/mol]      48.87745027 [kJ/mol]

  Total HF                        265.68614211 [mEh]     166.72057122 [kcal/mol]     697.55887000 [kJ/mol]
  Total SAPT0                     168.53761753 [mEh]     105.75895169 [kcal/mol]     442.49545386 [kJ/mol]
  Total SAPT2                     146.59316701 [mEh]      91.98860109 [kcal/mol]     384.88030695 [kJ/mol]
  Total SAPT2+                    148.72956581 [mEh]      93.32921158 [kcal/mol]     390.48942125 [kJ/mol]

  Special recipe for scaled SAPT0 (see Manual):
    Electrostatics sSAPT0        -211.26877926 [mEh]    -132.57316050 [kcal/mol]    -554.68610353 [kJ/mol]
    Exchange sSAPT0               790.31646388 [mEh]     495.93106837 [kcal/mol]    2074.97559005 [kJ/mol]
    Induction sSAPT0              -97.37592798 [mEh]     -61.10431732 [kcal/mol]    -255.66046368 [kJ/mol]
    Dispersion sSAPT0             -81.97709262 [mEh]     -51.44140225 [kcal/mol]    -215.23082701 [kJ/mol]
  Total sSAPT0                    399.69466403 [mEh]     250.81218830 [kcal/mol]    1049.39819583 [kJ/mol]
  --------------------------------------------------------------------------------------------------------

*** Psi4 exiting successfully. Buy a developer a beer!
