                               Psi4 1.3.2 release

  ==> Input File <==

--------------------------------------------------------------------------
#psi4
#
memory 32 gb

molecule  {
0 1
  C       -1.9644470     0.1609890    -0.0000020
  H       -3.0589320     0.1627090    -0.0000040
  O       -1.3160380     1.1929960    -0.0000020
  O       -1.4968300    -1.0660630     0.0000020
  H       -0.4778920    -1.0649310     0.0000090
--
0 1
  C        2.0025490    -0.1829050    -0.0000030
  H        3.0843650    -0.3051300    -0.0000050
  N        1.1847580    -1.1802720    -0.0000010
  H        1.6953530    -2.0537770    -0.0000010
  N        1.5876990     1.0939190     0.0000020
  H        0.5916820     1.2924520     0.0000010
  H        2.2546190     1.8385950     0.0000040
units angstrom
no_reorient  #important for SAPT in psi4, default
symmetry c1  #important for SAPT in psi4, default
}

set {
basis aug-cc-pVTZ
scf_type DF
freeze_core True
}
energy('sapt2+')
--------------------------------------------------------------------------

  //              Dimer HF             //
    Molecular point group: c1
  Charge       = 0
  Multiplicity = 1
  Basis Set: AUG-CC-PVTZ
    Blend: AUG-CC-PVTZ
  Basis Set: (AUG-CC-PVTZ AUX)
    Blend: AUG-CC-PVTZ-JKFIT
  @DF-RHF Final Energy:  -338.00890892946688
    Total Energy =                       -338.0089089294668838
  //            Monomer A HF           //
    Molecular point group: c1
  Multiplicity = 1
  Basis Set: AUG-CC-PVTZ
    Blend: AUG-CC-PVTZ
  Basis Set: (AUG-CC-PVTZ AUX)
    Blend: AUG-CC-PVTZ-JKFIT
  @DF-RHF Final Energy:  -188.83868001055924
    Total Energy =                       -188.8386800105592442
  //            Monomer B HF           //
    Molecular point group: c1

    Geometry (in Angstrom), charge = 0, multiplicity = 1:

       Center              X                  Y                   Z               Mass
    ------------   -----------------  -----------------  -----------------  -----------------
      Gh(C)          -1.946786025246     0.156247004552    -0.000001533938    12.000000000000
      Gh(H)          -3.041271025246     0.157967004552    -0.000003533938     1.007825032230
      Gh(O)          -1.298377025246     1.188254004552    -0.000001533938    15.994914619570
      Gh(O)          -1.479169025246    -1.070804995448     0.000002466062    15.994914619570
      Gh(H)          -0.460231025246    -1.069672995448     0.000009466062     1.007825032230
         C            2.020209974754    -0.187646995448    -0.000002533938    12.000000000000
         H            3.102025974754    -0.309871995448    -0.000004533938     1.007825032230
         N            1.202418974754    -1.185013995448    -0.000000533938    14.003074004430
         H            1.713013974754    -2.058518995448    -0.000000533938     1.007825032230
         N            1.605359974754     1.089177004552     0.000002466062    14.003074004430
         H            0.609342974754     1.287710004552     0.000001466062     1.007825032230
         H            2.272279974754     1.833853004552     0.000004466062     1.007825032230

  Charge       = 0
  Multiplicity = 1
  Basis Set: AUG-CC-PVTZ
    Blend: AUG-CC-PVTZ
  Basis Set: (AUG-CC-PVTZ AUX)
    Blend: AUG-CC-PVTZ-JKFIT

    Orbital Energies [Eh]
    ---------------------

    Doubly Occupied:

       1A    -15.580678     2A    -15.518358     3A    -11.313916
       4A     -1.260955     5A     -1.136087     6A     -0.830612
       7A     -0.749115     8A     -0.640566     9A     -0.618119
      10A     -0.530872    11A     -0.417500    12A     -0.358862

  @DF-RHF Final Energy:  -149.14371321701867

   => Energetics <=

    Nuclear Repulsion Energy =             72.3341927987140139
    One-Electron Energy =                -345.0445315804062147
    Two-Electron Energy =                 123.5666255646735294
    Total Energy =                       -149.1437132170186715

  Dipole Moment: [D]
     X:     2.3215      Y:     2.2610      Z:    -0.0000     Total:     3.2406

    SAPT Results
  --------------------------------------------------------------------------------------------------------
    Electrostatics                -54.68190845 [mEh]     -34.31341560 [kcal/mol]    -143.56733087 [kJ/mol]
      Elst10,r                    -56.08300783 [mEh]     -35.19261873 [kcal/mol]    -147.24591678 [kJ/mol]
      Elst12,r                      1.40109938 [mEh]       0.87920313 [kcal/mol]       3.67858591 [kJ/mol]

    Exchange                       64.23569174 [mEh]      40.30850512 [kcal/mol]     168.65078544 [kJ/mol]
      Exch10                       57.82658289 [mEh]      36.28672860 [kcal/mol]     151.82367247 [kJ/mol]
      Exch10(S^2)                  56.45611773 [mEh]      35.42674873 [kcal/mol]     148.22551668 [kJ/mol]
      Exch11(S^2)                   0.74565353 [mEh]       0.46790466 [kcal/mol]       1.95771308 [kJ/mol]
      Exch12(S^2)                   5.66345532 [mEh]       3.55387187 [kcal/mol]      14.86939989 [kJ/mol]

    Induction                     -29.96976504 [mEh]     -18.80631149 [kcal/mol]     -78.68560728 [kJ/mol]
      Ind20,r                     -33.74159111 [mEh]     -21.17316808 [kcal/mol]     -88.58853526 [kJ/mol]
      Ind22                        -3.61707360 [mEh]      -2.26974795 [kcal/mol]      -9.49662543 [kJ/mol]
      Exch-Ind20,r                 17.78543534 [mEh]      11.16052917 [kcal/mol]      46.69565405 [kJ/mol]
      Exch-Ind22                    1.90658551 [mEh]       1.19640047 [kcal/mol]       5.00573956 [kJ/mol]
      delta HF,r (2)              -12.30312117 [mEh]      -7.72032509 [kcal/mol]     -32.30184019 [kJ/mol]

    Dispersion                    -16.31526833 [mEh]     -10.23798545 [kcal/mol]     -42.83573110 [kJ/mol]
      Disp20                      -18.06785560 [mEh]     -11.33775056 [kcal/mol]     -47.43714834 [kJ/mol]
      Disp21                        1.50244530 [mEh]       0.94279866 [kcal/mol]       3.94466959 [kJ/mol]
      Disp22 (SDQ)                 -0.20564264 [mEh]      -0.12904270 [kcal/mol]      -0.53991468 [kJ/mol]
      Disp22 (T)                   -2.91942307 [mEh]      -1.83196563 [kcal/mol]      -7.66494421 [kJ/mol]
      Est. Disp22 (T)              -3.33607500 [mEh]      -2.09341867 [kcal/mol]      -8.75886370 [kJ/mol]
      Exch-Disp20                   3.79185960 [mEh]       2.37942782 [kcal/mol]       9.95552602 [kJ/mol]

  Total HF                        -26.51570189 [mEh]     -16.63885414 [kcal/mol]     -69.61696572 [kJ/mol]
  Total SAPT0                     -40.79169788 [mEh]     -25.59717687 [kcal/mol]    -107.09858804 [kJ/mol]
  Total SAPT2                     -34.69197774 [mEh]     -21.76954470 [kcal/mol]     -91.08377502 [kJ/mol]
  Total SAPT2+                    -36.73125008 [mEh]     -23.04920741 [kcal/mol]     -96.43788381 [kJ/mol]

  Special recipe for scaled SAPT0 (see Manual):
    Electrostatics sSAPT0         -56.08300783 [mEh]     -35.19261873 [kcal/mol]    -147.24591678 [kJ/mol]
    Exchange sSAPT0                57.82658289 [mEh]      36.28672860 [kcal/mol]     151.82367247 [kJ/mol]
    Induction sSAPT0              -26.93236367 [mEh]     -16.90031336 [kcal/mol]     -70.71091108 [kJ/mol]
    Dispersion sSAPT0             -13.99309773 [mEh]      -8.78080139 [kcal/mol]     -36.73887302 [kJ/mol]
  Total sSAPT0                    -39.18188634 [mEh]     -24.58700488 [kcal/mol]    -102.87202841 [kJ/mol]
  --------------------------------------------------------------------------------------------------------

*** Psi4 exiting successfully. Buy a developer a beer!
