                               Psi4 1.3.2 release

  ==> Input File <==

--------------------------------------------------------------------------
#psi4
#
memory 32 gb

molecule  {
0 1
  C        1.9047060    -0.1798760     0.0000010
  H        2.9930900    -0.2590830    -0.0000010
  O        1.1798480    -1.1602640     0.0000000
  O        1.5170880     1.0770050     0.0000000
  H        0.5236580     1.1098660     0.0000010
--
0 1
  C       -1.0956447     0.1548752    -0.0000010
  H       -2.1840347     0.2340172     0.0000000
  O       -0.3708457     1.1353072     0.0000000
  O       -0.7079447    -1.1019798     0.0000000
  H        0.2855013    -1.1347798     0.0000010
units angstrom
no_reorient  #important for SAPT in psi4, default
symmetry c1  #important for SAPT in psi4, default
}

set {
basis aug-cc-pVTZ
scf_type DF
freeze_core True
}
energy('sapt2+')
--------------------------------------------------------------------------

  //              Dimer HF             //
    Molecular point group: c1
  Charge       = 0
  Multiplicity = 1
  Basis Set: AUG-CC-PVTZ
    Blend: AUG-CC-PVTZ
  Basis Set: (AUG-CC-PVTZ AUX)
    Blend: AUG-CC-PVTZ-JKFIT
  @DF-RHF Final Energy:  -377.43980082041719
    Total Energy =                       -377.4398008204171902
  //            Monomer A HF           //
    Molecular point group: c1
  Multiplicity = 1
  Basis Set: AUG-CC-PVTZ
    Blend: AUG-CC-PVTZ
  Basis Set: (AUG-CC-PVTZ AUX)
    Blend: AUG-CC-PVTZ-JKFIT
  @DF-RHF Final Energy:  -188.84180924500779
    Total Energy =                       -188.8418092450077950
  //            Monomer B HF           //
    Molecular point group: c1

    Geometry (in Angstrom), charge = 0, multiplicity = 1:

       Center              X                  Y                   Z               Mass
    ------------   -----------------  -----------------  -----------------  -----------------
      Gh(C)           1.500170344043    -0.167388009567     0.000000989047    12.000000000000
      Gh(H)           2.588554344043    -0.246595009567    -0.000001010953     1.007825032230
      Gh(O)           0.775312344043    -1.147776009567    -0.000000010953    15.994914619570
      Gh(O)           1.112552344043     1.089492990433    -0.000000010953    15.994914619570
      Gh(H)           0.119122344043     1.122353990433     0.000000989047     1.007825032230
         C           -1.500180355957     0.167363190433    -0.000001010953    12.000000000000
         H           -2.588570355957     0.246505190433    -0.000000010953     1.007825032230
         O           -0.775381355957     1.147795190433    -0.000000010953    15.994914619570
         O           -1.112480355957    -1.089491809567    -0.000000010953    15.994914619570
         H           -0.119034355957    -1.122291809567     0.000000989047     1.007825032230

  Charge       = 0
  Multiplicity = 1
  Basis Set: AUG-CC-PVTZ
    Blend: AUG-CC-PVTZ
  Basis Set: (AUG-CC-PVTZ AUX)
    Blend: AUG-CC-PVTZ-JKFIT

    Orbital Energies [Eh]
    ---------------------

    Doubly Occupied:

       1A    -20.638213     2A    -20.561394     3A    -11.396465
       4A     -1.482657     5A     -1.369291     6A     -0.901921
       7A     -0.731286     8A     -0.712025     9A     -0.644314
      10A     -0.597402    11A     -0.490989    12A     -0.470859

  @DF-RHF Final Energy:  -188.84180799604306

   => Energetics <=

    Nuclear Repulsion Energy =             70.1580372184758971
    One-Electron Energy =                -398.0060583858698351
    Two-Electron Energy =                 139.0062131713508791
    Total Energy =                       -188.8418079960430589

  Dipole Moment: [D]
     X:    -0.4952      Y:    -1.9970      Z:    -0.0000     Total:     2.0575

    SAPT Results
  --------------------------------------------------------------------------------------------------------
    Electrostatics               -212.13589515 [mEh]    -133.11728394 [kcal/mol]    -556.96271598 [kJ/mol]
      Elst10,r                   -212.73887492 [mEh]    -133.49565946 [kcal/mol]    -558.54583916 [kJ/mol]
      Elst12,r                      0.60297977 [mEh]       0.37837552 [kcal/mol]       1.58312318 [kJ/mol]

    Exchange                      793.99116120 [mEh]     498.23697575 [kcal/mol]    2084.62350652 [kJ/mol]
      Exch10                      778.94522611 [mEh]     488.79550894 [kcal/mol]    2045.12040940 [kJ/mol]
      Exch10(S^2)                 665.61988972 [mEh]     417.68278673 [kcal/mol]    1747.58477970 [kJ/mol]
      Exch11(S^2)                  -7.36295847 [mEh]      -4.62032619 [kcal/mol]     -19.33144479 [kJ/mol]
      Exch12(S^2)                  22.40889355 [mEh]      14.06179300 [kcal/mol]      58.83454192 [kJ/mol]

    Induction                    -353.29292325 [mEh]    -221.69465636 [kcal/mol]    -927.57044220 [kJ/mol]
      Ind20,r                    -586.00791289 [mEh]    -367.72551705 [kcal/mol]   -1538.56356333 [kJ/mol]
      Ind22                       -63.37981541 [mEh]     -39.77143461 [kcal/mol]    -166.40368242 [kJ/mol]
      Exch-Ind20,r                300.27974951 [mEh]     188.42838760 [kcal/mol]     788.38437372 [kJ/mol]
      Exch-Ind22                   32.47682271 [mEh]      20.37951393 [kcal/mol]      85.26788628 [kJ/mol]
      delta HF,r (2)              -36.66176717 [mEh]     -23.00560622 [kcal/mol]     -96.25545644 [kJ/mol]

    Dispersion                    -88.02935436 [mEh]     -55.23925383 [kcal/mol]    -231.12103804 [kJ/mol]
      Disp20                     -108.65699585 [mEh]     -68.18329429 [kcal/mol]    -285.27890330 [kJ/mol]
      Disp21                       20.19991250 [mEh]      12.67563646 [kcal/mol]      53.03486296 [kJ/mol]
      Disp22 (SDQ)                 -4.95493793 [mEh]      -3.10927049 [kcal/mol]     -13.00918773 [kJ/mol]
      Disp22 (T)                  -15.21217171 [mEh]      -9.54578187 [kcal/mol]     -39.93955133 [kJ/mol]
      Est. Disp22 (T)             -16.24976564 [mEh]     -10.19688188 [kcal/mol]     -42.66375380 [kJ/mol]
      Exch-Disp20                  21.63243255 [mEh]      13.57455637 [kcal/mol]      56.79594383 [kJ/mol]

  Total HF                        243.81642063 [mEh]     152.99711381 [kcal/mol]     640.13992418 [kJ/mol]
  Total SAPT0                     156.79185733 [mEh]      98.38837589 [kcal/mol]     411.65696471 [kJ/mol]
  Total SAPT2                     141.53777950 [mEh]      88.81629753 [kcal/mol]     371.60738887 [kJ/mol]
  Total SAPT2+                    140.53298843 [mEh]      88.18578162 [kcal/mol]     368.96931030 [kJ/mol]

  Special recipe for scaled SAPT0 (see Manual):
    Electrostatics sSAPT0        -212.73887492 [mEh]    -133.49565946 [kcal/mol]    -558.54583916 [kJ/mol]
    Exchange sSAPT0               778.94522611 [mEh]     488.79550894 [kcal/mol]    2045.12040940 [kJ/mol]
    Induction sSAPT0             -141.42279398 [mEh]     -88.74414303 [kcal/mol]    -371.30549443 [kJ/mol]
    Dispersion sSAPT0             -73.98752240 [mEh]     -46.42787125 [kcal/mol]    -194.25421330 [kJ/mol]
  Total sSAPT0                    350.79603481 [mEh]     220.12783521 [kcal/mol]     921.01486250 [kJ/mol]
  --------------------------------------------------------------------------------------------------------

*** Psi4 exiting successfully. Buy a developer a beer!
