                               Psi4 1.3.2 release

  ==> Input File <==

--------------------------------------------------------------------------
#psi4
#
memory 32 gb

molecule  {
0 1
  C       -2.0482690     0.2828850     0.0000130
  H       -3.1457830     0.3491130    -0.0000080
  O       -1.3512910     1.2933720    -0.0000010
  N       -1.5923150    -0.9782630     0.0000040
  H       -0.5837530    -1.1752650     0.0000030
  H       -2.2528990    -1.7321960    -0.0000070
--
0 1
  C        1.7709209    -0.2232975     0.0000041
  H        2.8608329    -0.2495655     0.0000000
  N        1.0390150    -1.2849565     0.0000020
  H        1.6387799    -2.1012755    -0.0000039
  N        1.2587460     1.0216445     0.0000000
  H        0.2521060     1.1716205    -0.0000010
  H        1.8746330     1.8091975    -0.0000050
units angstrom
no_reorient  #important for SAPT in psi4, default
symmetry c1  #important for SAPT in psi4, default
}

set {
basis aug-cc-pVTZ
scf_type DF
freeze_core True
}
energy('sapt2+')
--------------------------------------------------------------------------

  //              Dimer HF             //
    Molecular point group: c1
  Charge       = 0
  Multiplicity = 1
  Basis Set: AUG-CC-PVTZ
    Blend: AUG-CC-PVTZ
  Basis Set: (AUG-CC-PVTZ AUX)
    Blend: AUG-CC-PVTZ-JKFIT
  @DF-RHF Final Energy:  -318.15429135280988
    Total Energy =                       -318.1542913528098779
  //            Monomer A HF           //
    Molecular point group: c1
  Multiplicity = 1
  Basis Set: AUG-CC-PVTZ
    Blend: AUG-CC-PVTZ
  Basis Set: (AUG-CC-PVTZ AUX)
    Blend: AUG-CC-PVTZ-JKFIT
  @DF-RHF Final Energy:  -169.00286897838663
    Total Energy =                       -169.0028689783866298
  //            Monomer B HF           //
    Molecular point group: c1

    Geometry (in Angstrom), charge = 0, multiplicity = 1:

       Center              X                  Y                   Z               Mass
    ------------   -----------------  -----------------  -----------------  -----------------
      Gh(C)          -1.886414413451     0.259607177536     0.000010179932    12.000000000000
      Gh(H)          -2.983928413451     0.325835177536    -0.000010820068     1.007825032230
      Gh(O)          -1.189436413451     1.270094177536    -0.000003820068    15.994914619570
      Gh(N)          -1.430460413451    -1.001540822464     0.000001179932    14.003074004430
      Gh(H)          -0.421898413451    -1.198542822464     0.000000179932     1.007825032230
      Gh(H)          -2.091044413451    -1.755473822464    -0.000009820068     1.007825032230
         C            1.932775486549    -0.246575322464     0.000001279932    12.000000000000
         H            3.022687486549    -0.272843322464    -0.000002820068     1.007825032230
         N            1.200869586549    -1.308234322464    -0.000000820068    14.003074004430
         H            1.800634486549    -2.124553322464    -0.000006720068     1.007825032230
         N            1.420600586549     0.998366677536    -0.000002820068    14.003074004430
         H            0.413960586549     1.148342677536    -0.000003820068     1.007825032230
         H            2.036487586549     1.785919677536    -0.000007820068     1.007825032230

  Charge       = 0
  Multiplicity = 1
  Basis Set: AUG-CC-PVTZ
    Blend: AUG-CC-PVTZ
  Basis Set: (AUG-CC-PVTZ AUX)
    Blend: AUG-CC-PVTZ-JKFIT

    Orbital Energies [Eh]
    ---------------------

    Doubly Occupied:

       1A    -15.580933     2A    -15.519587     3A    -11.314718
       4A     -1.259444     5A     -1.137350     6A     -0.830836
       7A     -0.746501     8A     -0.640065     9A     -0.616573
      10A     -0.530112    11A     -0.419652    12A     -0.359595

  @DF-RHF Final Energy:  -149.14359477888496

   => Energetics <=

    Nuclear Repulsion Energy =             72.2208417226619872
    One-Electron Energy =                -344.8181359370160521
    Two-Electron Energy =                 123.4536994354691046
    Total Energy =                       -149.1435947788849603

  Dipole Moment: [D]
     X:     2.1431      Y:     2.4667      Z:    -0.0000     Total:     3.2676

    SAPT Results
  --------------------------------------------------------------------------------------------------------
    Electrostatics                -70.84067712 [mEh]     -44.45319602 [kcal/mol]    -185.99217216 [kJ/mol]
      Elst10,r                    -71.30426489 [mEh]     -44.74410174 [kcal/mol]    -187.20932167 [kJ/mol]
      Elst12,r                      0.46358776 [mEh]       0.29090571 [kcal/mol]       1.21714951 [kJ/mol]

    Exchange                      109.45297898 [mEh]      68.68278124 [kcal/mol]     287.36875672 [kJ/mol]
      Exch10                      101.40293268 [mEh]      63.63130092 [kcal/mol]     266.23336307 [kJ/mol]
      Exch10(S^2)                  98.17618758 [mEh]      61.60648781 [kcal/mol]     257.76154499 [kJ/mol]
      Exch11(S^2)                   1.09290167 [mEh]       0.68580615 [kcal/mol]       2.86941295 [kJ/mol]
      Exch12(S^2)                   6.95714463 [mEh]       4.36567416 [kcal/mol]      18.26598070 [kJ/mol]

    Induction                     -40.16175070 [mEh]     -25.20187905 [kcal/mol]    -105.44466195 [kJ/mol]
      Ind20,r                     -49.54061865 [mEh]     -31.08720754 [kcal/mol]    -130.06887636 [kJ/mol]
      Ind22                        -5.36355639 [mEh]      -3.36568245 [kcal/mol]     -14.08201535 [kJ/mol]
      Exch-Ind20,r                 28.89248531 [mEh]      18.13030825 [kcal/mol]      75.85720974 [kJ/mol]
      Exch-Ind22                    3.12806901 [mEh]       1.96289294 [kcal/mol]       8.21274406 [kJ/mol]
      delta HF,r (2)              -17.27812999 [mEh]     -10.84219026 [kcal/mol]     -45.36372404 [kJ/mol]

    Dispersion                    -22.86380066 [mEh]     -14.34725152 [kcal/mol]     -60.02890036 [kJ/mol]
      Disp20                      -26.85200371 [mEh]     -16.84988672 [kcal/mol]     -70.49992602 [kJ/mol]
      Disp21                        2.40006667 [mEh]       1.50606457 [kcal/mol]       6.30137418 [kJ/mol]
      Disp22 (SDQ)                  0.07532015 [mEh]       0.04726411 [kcal/mol]       0.19775302 [kJ/mol]
      Disp22 (T)                   -3.98362384 [mEh]      -2.49976170 [kcal/mol]     -10.45900295 [kJ/mol]
      Est. Disp22 (T)              -4.52871776 [mEh]      -2.84181330 [kcal/mol]     -11.89014684 [kJ/mol]
      Exch-Disp20                   6.04153399 [mEh]       3.79111981 [kcal/mol]      15.86204529 [kJ/mol]

  Total HF                         -7.82759554 [mEh]      -4.91189036 [kcal/mol]     -20.55134925 [kJ/mol]
  Total SAPT0                     -28.63806526 [mEh]     -17.97065726 [kcal/mol]     -75.18922998 [kJ/mol]
  Total SAPT2                     -22.35991857 [mEh]     -14.03106073 [kcal/mol]     -58.70595811 [kJ/mol]
  Total SAPT2+                    -24.41324950 [mEh]     -15.31954535 [kcal/mol]     -64.09697774 [kJ/mol]

  Special recipe for scaled SAPT0 (see Manual):
    Electrostatics sSAPT0         -71.30426489 [mEh]     -44.74410174 [kcal/mol]    -187.20932167 [kJ/mol]
    Exchange sSAPT0               101.40293268 [mEh]      63.63130092 [kcal/mol]     266.23336307 [kJ/mol]
    Induction sSAPT0              -34.98278814 [mEh]     -21.95203098 [kcal/mol]     -91.84729760 [kJ/mol]
    Dispersion sSAPT0             -20.19497731 [mEh]     -12.67253959 [kcal/mol]     -53.02190562 [kJ/mol]
  Total sSAPT0                    -25.07909766 [mEh]     -15.73737137 [kcal/mol]     -65.84516182 [kJ/mol]
  --------------------------------------------------------------------------------------------------------

*** Psi4 exiting successfully. Buy a developer a beer!
