                               Psi4 1.3.2 release

  ==> Input File <==

--------------------------------------------------------------------------
#psi4
#
memory 32 gb

molecule  {
0 1
  C       -2.0482690     0.2828850     0.0000130
  H       -3.1457830     0.3491130    -0.0000080
  O       -1.3512910     1.2933720    -0.0000010
  N       -1.5923150    -0.9782630     0.0000040
  H       -0.5837530    -1.1752650     0.0000030
  H       -2.2528990    -1.7321960    -0.0000070
--
0 1
  C        1.1885468    -0.1590285     0.0000042
  H        2.2784588    -0.1852965     0.0000002
  N        0.4566408    -1.2206875     0.0000021
  H        1.0564058    -2.0370065    -0.0000038
  N        0.6763718     1.0859135     0.0000002
  H       -0.3302682     1.2358895    -0.0000008
  H        1.2922589     1.8734665    -0.0000049
units angstrom
no_reorient  #important for SAPT in psi4, default
symmetry c1  #important for SAPT in psi4, default
}

set {
basis aug-cc-pVTZ
scf_type DF
freeze_core True
}
energy('sapt2+')
--------------------------------------------------------------------------

  //              Dimer HF             //
    Molecular point group: c1
  Charge       = 0
  Multiplicity = 1
  Basis Set: AUG-CC-PVTZ
    Blend: AUG-CC-PVTZ
  Basis Set: (AUG-CC-PVTZ AUX)
    Blend: AUG-CC-PVTZ-JKFIT
  @DF-RHF Final Energy:  -317.96132224687273
    Total Energy =                       -317.9613222468727258
  //            Monomer A HF           //
    Molecular point group: c1
  Multiplicity = 1
  Basis Set: AUG-CC-PVTZ
    Blend: AUG-CC-PVTZ
  Basis Set: (AUG-CC-PVTZ AUX)
    Blend: AUG-CC-PVTZ-JKFIT
  @DF-RHF Final Energy:  -169.00306114674248
    Total Energy =                       -169.0030611467424819
  //            Monomer B HF           //
    Molecular point group: c1

    Geometry (in Angstrom), charge = 0, multiplicity = 1:

       Center              X                  Y                   Z               Mass
    ------------   -----------------  -----------------  -----------------  -----------------
      Gh(C)          -1.598444668574     0.227827732949     0.000010112498    12.000000000000
      Gh(H)          -2.695958668574     0.294055732949    -0.000010887502     1.007825032230
      Gh(O)          -0.901466668574     1.238314732949    -0.000003887502    15.994914619570
      Gh(N)          -1.142490668574    -1.033320267051     0.000001112498    14.003074004430
      Gh(H)          -0.133928668574    -1.230322267051     0.000000112498     1.007825032230
      Gh(H)          -1.803074668574    -1.787253267051    -0.000009887502     1.007825032230
         C            1.638371131426    -0.214085767051     0.000001312498    12.000000000000
         H            2.728283131426    -0.240353767051    -0.000002687502     1.007825032230
         N            0.906465131426    -1.275744767051    -0.000000787502    14.003074004430
         H            1.506230131426    -2.092063767051    -0.000006687502     1.007825032230
         N            1.126196131426     1.030856232949    -0.000002687502    14.003074004430
         H            0.119556131426     1.180832232949    -0.000003687502     1.007825032230
         H            1.742083231426     1.818409232949    -0.000007787502     1.007825032230

  Charge       = 0
  Multiplicity = 1
  Basis Set: AUG-CC-PVTZ
    Blend: AUG-CC-PVTZ
  Basis Set: (AUG-CC-PVTZ AUX)
    Blend: AUG-CC-PVTZ-JKFIT

    Orbital Energies [Eh]
    ---------------------

    Doubly Occupied:

       1A    -15.580902     2A    -15.519453     3A    -11.314699
       4A     -1.259430     5A     -1.137330     6A     -0.830825
       7A     -0.746490     8A     -0.640057     9A     -0.616557
      10A     -0.530107    11A     -0.419654    12A     -0.359596

  @DF-RHF Final Energy:  -149.14375139363204

   => Energetics <=

    Nuclear Repulsion Energy =             72.2208398206249598
    One-Electron Energy =                -344.8189810091872687
    Two-Electron Energy =                 123.4543897949302504
    Total Energy =                       -149.1437513936320443

  Dipole Moment: [D]
     X:     2.1424      Y:     2.4665      Z:    -0.0000     Total:     3.2670

    SAPT Results
  --------------------------------------------------------------------------------------------------------
    Electrostatics               -231.47814683 [mEh]    -145.25473011 [kcal/mol]    -607.74579077 [kJ/mol]
      Elst10,r                   -234.42748838 [mEh]    -147.10546987 [kcal/mol]    -615.48928594 [kJ/mol]
      Elst12,r                      2.94934155 [mEh]       1.85073977 [kcal/mol]       7.74349518 [kJ/mol]

    Exchange                      654.76973378 [mEh]     410.87421109 [kcal/mol]    1719.09769919 [kJ/mol]
      Exch10                      649.29381184 [mEh]     407.43801820 [kcal/mol]    1704.72066814 [kJ/mol]
      Exch10(S^2)                 554.29766796 [mEh]     347.82703794 [kcal/mol]    1455.30832673 [kJ/mol]
      Exch11(S^2)                   3.16230814 [mEh]       1.98437832 [kcal/mol]       8.30263888 [kJ/mol]
      Exch12(S^2)                   2.31361380 [mEh]       1.45181458 [kcal/mol]       6.07439218 [kJ/mol]

    Induction                    -244.25681623 [mEh]    -153.27346622 [kcal/mol]    -641.29618266 [kJ/mol]
      Ind20,r                    -398.23532525 [mEh]    -249.89643939 [kcal/mol]   -1045.56670239 [kJ/mol]
      Ind22                       -29.79451539 [mEh]     -18.69634067 [kcal/mol]     -78.22548938 [kJ/mol]
      Exch-Ind20,r                199.33782074 [mEh]     125.08637099 [kcal/mol]     523.36137624 [kJ/mol]
      Exch-Ind22                   14.91372912 [mEh]       9.35850631 [kcal/mol]      39.15599042 [kJ/mol]
      delta HF,r (2)              -30.47852545 [mEh]     -19.12556347 [kcal/mol]     -80.02135755 [kJ/mol]

    Dispersion                    -80.01638368 [mEh]     -50.21103881 [kcal/mol]    -210.08298640 [kJ/mol]
      Disp20                      -99.65892991 [mEh]     -62.53692267 [kcal/mol]    -261.65448443 [kJ/mol]
      Disp21                       16.22346068 [mEh]      10.18037527 [kcal/mol]      42.59469014 [kJ/mol]
      Disp22 (SDQ)                 -0.76221613 [mEh]      -0.47829784 [kcal/mol]      -2.00119818 [kJ/mol]
      Disp22 (T)                  -12.98067955 [mEh]      -8.14549939 [kcal/mol]     -34.08076946 [kJ/mol]
      Est. Disp22 (T)             -13.89635382 [mEh]      -8.72009367 [kcal/mol]     -36.48487192 [kJ/mol]
      Exch-Disp20                  18.07765551 [mEh]      11.34390010 [kcal/mol]      47.46287800 [kJ/mol]

  Total HF                        185.49029350 [mEh]     116.39691647 [kcal/mol]     487.00469849 [kJ/mol]
  Total SAPT0                     103.90901910 [mEh]      65.20389390 [kcal/mol]     272.81309206 [kJ/mol]
  Total SAPT2                      97.45349632 [mEh]      61.15299219 [kcal/mol]     255.86411933 [kJ/mol]
  Total SAPT2+                     99.01838705 [mEh]      62.13497595 [kcal/mol]     259.97273937 [kJ/mol]

  Special recipe for scaled SAPT0 (see Manual):
    Electrostatics sSAPT0        -234.42748838 [mEh]    -147.10546987 [kcal/mol]    -615.48928594 [kJ/mol]
    Exchange sSAPT0               649.29381184 [mEh]     407.43801820 [kcal/mol]    1704.72066814 [kJ/mol]
    Induction sSAPT0             -108.31987382 [mEh]     -67.97174702 [kcal/mol]    -284.39378953 [kJ/mol]
    Dispersion sSAPT0             -70.60286860 [mEh]     -44.30396892 [kcal/mol]    -185.36780597 [kJ/mol]
  Total sSAPT0                    235.94358105 [mEh]     148.05683238 [kcal/mol]     619.46978669 [kJ/mol]
  --------------------------------------------------------------------------------------------------------

*** Psi4 exiting successfully. Buy a developer a beer!
