                               Psi4 1.3.2 release

  ==> Input File <==

--------------------------------------------------------------------------
#psi4
#
memory 32 gb

molecule  {
0 1
  C        1.9047060    -0.1798760     0.0000010
  H        2.9930900    -0.2590830    -0.0000010
  O        1.1798480    -1.1602640     0.0000000
  O        1.5170880     1.0770050     0.0000000
  H        0.5236580     1.1098660     0.0000010
--
0 1
  C       -2.1744237     0.1881856    -0.0000010
  H       -3.2628138     0.2673276     0.0000000
  O       -1.4496248     1.1686176     0.0000000
  O       -1.7867238    -1.0686694     0.0000000
  H       -0.7932778    -1.1014694     0.0000010
units angstrom
no_reorient  #important for SAPT in psi4, default
symmetry c1  #important for SAPT in psi4, default
}

set {
basis aug-cc-pVTZ
scf_type DF
freeze_core True
}
energy('sapt2+')
--------------------------------------------------------------------------

  //              Dimer HF             //
    Molecular point group: c1
  Charge       = 0
  Multiplicity = 1
  Basis Set: AUG-CC-PVTZ
    Blend: AUG-CC-PVTZ
  Basis Set: (AUG-CC-PVTZ AUX)
    Blend: AUG-CC-PVTZ-JKFIT
  @DF-RHF Final Energy:  -377.70512691175179
    Total Energy =                       -377.7051269117517904
  //            Monomer A HF           //
    Molecular point group: c1
  Multiplicity = 1
  Basis Set: AUG-CC-PVTZ
    Blend: AUG-CC-PVTZ
  Basis Set: (AUG-CC-PVTZ AUX)
    Blend: AUG-CC-PVTZ-JKFIT
  @DF-RHF Final Energy:  -188.84140212679216
    Total Energy =                       -188.8414021267921612
  //            Monomer B HF           //
    Molecular point group: c1

    Geometry (in Angstrom), charge = 0, multiplicity = 1:

       Center              X                  Y                   Z               Mass
    ------------   -----------------  -----------------  -----------------  -----------------
      Gh(C)           2.039559881001    -0.184043209567     0.000000989047    12.000000000000
      Gh(H)           3.127943881001    -0.263250209567    -0.000001010953     1.007825032230
      Gh(O)           1.314701881001    -1.164431209567    -0.000000010953    15.994914619570
      Gh(O)           1.651941881001     1.072837790433    -0.000000010953    15.994914619570
      Gh(H)           0.658511881001     1.105698790433     0.000000989047     1.007825032230
         C           -2.039569818999     0.184018390433    -0.000001010953    12.000000000000
         H           -3.127959918999     0.263160390433    -0.000000010953     1.007825032230
         O           -1.314770918999     1.164450390433    -0.000000010953    15.994914619570
         O           -1.651869918999    -1.072836609567    -0.000000010953    15.994914619570
         H           -0.658423918999    -1.105636609567     0.000000989047     1.007825032230

  Charge       = 0
  Multiplicity = 1
  Basis Set: AUG-CC-PVTZ
    Blend: AUG-CC-PVTZ
  Basis Set: (AUG-CC-PVTZ AUX)
    Blend: AUG-CC-PVTZ-JKFIT

    Orbital Energies [Eh]
    ---------------------

    Doubly Occupied:

       1A    -20.638379     2A    -20.561676     3A    -11.396537
       4A     -1.482754     5A     -1.369402     6A     -0.901983
       7A     -0.731359     8A     -0.712078     9A     -0.644360
      10A     -0.597463    11A     -0.491044    12A     -0.470921

  @DF-RHF Final Energy:  -188.84140095912332

   => Energetics <=

    Nuclear Repulsion Energy =             70.1580384660591818
    One-Electron Energy =                -398.0029632145078153
    Two-Electron Energy =                 139.0035237893253282
    Total Energy =                       -188.8414009591233196

  Dipole Moment: [D]
     X:    -0.4970      Y:    -1.9980      Z:    -0.0000     Total:     2.0589

    SAPT Results
  --------------------------------------------------------------------------------------------------------
    Electrostatics                -28.81874000 [mEh]     -18.08403237 [kcal/mol]     -75.66359144 [kJ/mol]
      Elst10,r                    -30.98201677 [mEh]     -19.44150904 [kcal/mol]     -81.34327382 [kJ/mol]
      Elst12,r                      2.16327677 [mEh]       1.35747667 [kcal/mol]       5.67968238 [kJ/mol]

    Exchange                       23.82527626 [mEh]      14.95058657 [kcal/mol]      62.55325421 [kJ/mol]
      Exch10                       19.77672545 [mEh]      12.41008258 [kcal/mol]      51.92378551 [kJ/mol]
      Exch10(S^2)                  19.62395137 [mEh]      12.31421540 [kcal/mol]      51.52267723 [kJ/mol]
      Exch11(S^2)                   0.09506737 [mEh]       0.05965567 [kcal/mol]       0.24959933 [kJ/mol]
      Exch12(S^2)                   3.95348345 [mEh]       2.48084832 [kcal/mol]      10.37986937 [kJ/mol]

    Induction                     -12.14128266 [mEh]      -7.61876989 [kcal/mol]     -31.87693323 [kJ/mol]
      Ind20,r                     -12.65750611 [mEh]      -7.94270500 [kcal/mol]     -33.23227772 [kJ/mol]
      Ind22                        -1.84912026 [mEh]      -1.16034048 [kcal/mol]      -4.85486457 [kJ/mol]
      Exch-Ind20,r                  5.65664135 [mEh]       3.54959604 [kcal/mol]      14.85150981 [kJ/mol]
      Exch-Ind22                    0.82637212 [mEh]       0.51855633 [kcal/mol]       2.16963969 [kJ/mol]
      delta HF,r (2)               -4.11766975 [mEh]      -2.58387678 [kcal/mol]     -10.81094044 [kJ/mol]

    Dispersion                     -9.11190657 [mEh]      -5.71780769 [kcal/mol]     -23.92330739 [kJ/mol]
      Disp20                       -8.95570270 [mEh]      -5.61978829 [kcal/mol]     -23.51319420 [kJ/mol]
      Disp21                        0.61702621 [mEh]       0.38718979 [kcal/mol]       1.62000209 [kJ/mol]
      Disp22 (SDQ)                 -0.36071235 [mEh]      -0.22635042 [kcal/mol]      -0.94705015 [kJ/mol]
      Disp22 (T)                   -1.61902752 [mEh]      -1.01595511 [kcal/mol]      -4.25075616 [kJ/mol]
      Est. Disp22 (T)              -1.84618624 [mEh]      -1.15849936 [kcal/mol]      -4.84716132 [kJ/mol]
      Exch-Disp20                   1.43366852 [mEh]       0.89964058 [kcal/mol]       3.76409619 [kJ/mol]

  Total HF                        -22.32382584 [mEh]     -14.00841220 [kcal/mol]     -58.61119666 [kJ/mol]
  Total SAPT0                     -29.84586001 [mEh]     -18.72855991 [kcal/mol]     -78.36029467 [kJ/mol]
  Total SAPT2                     -24.65678057 [mEh]     -15.47236340 [kcal/mol]     -64.73636847 [kJ/mol]
  Total SAPT2+                    -26.24665296 [mEh]     -16.47002339 [kcal/mol]     -68.91057785 [kJ/mol]

  Special recipe for scaled SAPT0 (see Manual):
    Electrostatics sSAPT0         -30.98201677 [mEh]     -19.44150904 [kcal/mol]     -81.34327382 [kJ/mol]
    Exchange sSAPT0                19.77672545 [mEh]      12.41008258 [kcal/mol]      51.92378551 [kJ/mol]
    Induction sSAPT0              -10.98539109 [mEh]      -6.89343698 [kcal/mol]     -28.84214032 [kJ/mol]
    Dispersion sSAPT0              -7.48828915 [mEh]      -4.69897238 [kcal/mol]     -19.66050044 [kJ/mol]
  Total sSAPT0                    -29.67897155 [mEh]     -18.62383582 [kcal/mol]     -77.92212908 [kJ/mol]
  --------------------------------------------------------------------------------------------------------

*** Psi4 exiting successfully. Buy a developer a beer!
