                               Psi4 1.3.2 release

  ==> Input File <==

--------------------------------------------------------------------------
#psi4
#
memory 32 gb

molecule  {
0 1
  C        2.1022740    -0.1999910     0.0000010
  H        3.1931760    -0.2048250     0.0000000
  N        1.3929100    -1.2773340     0.0000000
  H        2.0119970    -2.0793170    -0.0000010
  N        1.5658380     1.0343930     0.0000000
  H        0.5512430     1.1716950     0.0000000
  H        2.1722770     1.8295020    -0.0000010
--
0 1
  C       -1.8063992     0.1756969     0.0000000
  H       -2.8973012     0.1805309     0.0000000
  N       -1.0970352     1.2530399     0.0000000
  H       -1.7161222     2.0550229     0.0000000
  N       -1.2699632    -1.0586871     0.0000000
  H       -0.2553682    -1.1959891     0.0000000
  H       -1.8764022    -1.8537961     0.0000000
units angstrom
no_reorient  #important for SAPT in psi4, default
symmetry c1  #important for SAPT in psi4, default
}

set {
basis aug-cc-pVTZ
scf_type DF
freeze_core True
}
energy('sapt2+')
--------------------------------------------------------------------------

  //              Dimer HF             //
    Molecular point group: c1
  Charge       = 0
  Multiplicity = 1
  Basis Set: AUG-CC-PVTZ
    Blend: AUG-CC-PVTZ
  Basis Set: (AUG-CC-PVTZ AUX)
    Blend: AUG-CC-PVTZ-JKFIT
  @DF-RHF Final Energy:  -298.29159962955555
    Total Energy =                       -298.2915996295555487
  //            Monomer A HF           //
    Molecular point group: c1
  Multiplicity = 1
  Basis Set: AUG-CC-PVTZ
    Blend: AUG-CC-PVTZ
  Basis Set: (AUG-CC-PVTZ AUX)
    Blend: AUG-CC-PVTZ-JKFIT
  @DF-RHF Final Energy:  -149.14315151668762
    Total Energy =                       -149.1431515166876238
  //            Monomer B HF           //
    Molecular point group: c1

    Geometry (in Angstrom), charge = 0, multiplicity = 1:

       Center              X                  Y                   Z               Mass
    ------------   -----------------  -----------------  -----------------  -----------------
      Gh(C)           1.954336600000    -0.187843950000     0.000000886638    12.000000000000
      Gh(H)           3.045238600000    -0.192677950000    -0.000000113362     1.007825032230
      Gh(N)           1.244972600000    -1.265186950000    -0.000000113362    14.003074004430
      Gh(H)           1.864059600000    -2.067169950000    -0.000001113362     1.007825032230
      Gh(N)           1.417900600000     1.046540050000    -0.000000113362    14.003074004430
      Gh(H)           0.403305600000     1.183842050000    -0.000000113362     1.007825032230
      Gh(H)           2.024339600000     1.841649050000    -0.000001113362     1.007825032230
         C           -1.954336600000     0.187843950000    -0.000000113362    12.000000000000
         H           -3.045238600000     0.192677950000    -0.000000113362     1.007825032230
         N           -1.244972600000     1.265186950000    -0.000000113362    14.003074004430
         H           -1.864059600000     2.067169950000    -0.000000113362     1.007825032230
         N           -1.417900600000    -1.046540050000    -0.000000113362    14.003074004430
         H           -0.403305600000    -1.183842050000    -0.000000113362     1.007825032230
         H           -2.024339600000    -1.841649050000    -0.000000113362     1.007825032230

  Charge       = 0
  Multiplicity = 1
  Basis Set: AUG-CC-PVTZ
    Blend: AUG-CC-PVTZ
  Basis Set: (AUG-CC-PVTZ AUX)
    Blend: AUG-CC-PVTZ-JKFIT

    Orbital Energies [Eh]
    ---------------------

    Doubly Occupied:

       1A    -15.581648     2A    -15.519538     3A    -11.314765
       4A     -1.258997     5A     -1.137043     6A     -0.829936
       7A     -0.745808     8A     -0.639648     9A     -0.615819
      10A     -0.530065    11A     -0.419649    12A     -0.359455

  @DF-RHF Final Energy:  -149.14315151681484

   => Energetics <=

    Nuclear Repulsion Energy =             72.1807086195704386
    One-Electron Energy =                -344.7429745083636590
    Two-Electron Energy =                 123.4191143719783668
    Total Energy =                       -149.1431515168148394

  Dipole Moment: [D]
     X:    -2.0899      Y:    -2.5220      Z:     0.0000     Total:     3.2754

    SAPT Results
  --------------------------------------------------------------------------------------------------------
    Electrostatics                -73.58413303 [mEh]     -46.17474060 [kcal/mol]    -193.19511466 [kJ/mol]
      Elst10,r                    -73.30680732 [mEh]     -46.00071609 [kcal/mol]    -192.46699610 [kJ/mol]
      Elst12,r                     -0.27732571 [mEh]      -0.17402451 [kcal/mol]      -0.72811855 [kJ/mol]

    Exchange                      114.23324622 [mEh]      71.68244422 [kcal/mol]     299.91934663 [kJ/mol]
      Exch10                      107.31827803 [mEh]      67.34323617 [kcal/mol]     281.76410015 [kJ/mol]
      Exch10(S^2)                 103.62801943 [mEh]      65.02756394 [kcal/mol]     272.07532752 [kJ/mol]
      Exch11(S^2)                   1.57858207 [mEh]       0.99057520 [kcal/mol]       4.14456665 [kJ/mol]
      Exch12(S^2)                   5.33638612 [mEh]       3.34863285 [kcal/mol]      14.01067984 [kJ/mol]

    Induction                     -41.36756088 [mEh]     -25.95853636 [kcal/mol]    -108.61051612 [kJ/mol]
      Ind20,r                     -51.61221453 [mEh]     -32.38715358 [kcal/mol]    -135.50785058 [kJ/mol]
      Ind22                        -4.92618170 [mEh]      -3.09122569 [kcal/mol]     -12.93368827 [kJ/mol]
      Exch-Ind20,r                 30.03464015 [mEh]      18.84702123 [kcal/mol]      78.85593685 [kJ/mol]
      Exch-Ind22                    2.86668759 [mEh]       1.79887362 [kcal/mol]       7.52648722 [kJ/mol]
      delta HF,r (2)              -17.73049238 [mEh]     -11.12605194 [kcal/mol]     -46.55140134 [kJ/mol]

    Dispersion                    -23.88864964 [mEh]     -14.99035396 [kcal/mol]     -62.71964099 [kJ/mol]
      Disp20                      -28.68614517 [mEh]     -18.00082786 [kcal/mol]     -75.31546378 [kJ/mol]
      Disp21                        2.57804928 [mEh]       1.61775035 [kcal/mol]       6.76866746 [kJ/mol]
      Disp22 (SDQ)                  0.42194113 [mEh]       0.26477205 [kcal/mol]       1.10780627 [kJ/mol]
      Disp22 (T)                   -4.17321049 [mEh]      -2.61872912 [kcal/mol]     -10.95676264 [kJ/mol]
      Est. Disp22 (T)              -4.72335972 [mEh]      -2.96395297 [kcal/mol]     -12.40117924 [kJ/mol]
      Exch-Disp20                   6.52086485 [mEh]       4.09190447 [kcal/mol]      17.12052830 [kJ/mol]

  Total HF                         -5.29659605 [mEh]      -3.32366420 [kcal/mol]     -13.90621102 [kJ/mol]
  Total SAPT0                     -27.46187638 [mEh]     -17.23258760 [kcal/mol]     -72.10114650 [kJ/mol]
  Total SAPT2                     -22.88372801 [mEh]     -14.35975612 [kcal/mol]     -60.08121962 [kJ/mol]
  Total SAPT2+                    -24.60709733 [mEh]     -15.44118669 [kcal/mol]     -64.60592513 [kJ/mol]

  Special recipe for scaled SAPT0 (see Manual):
    Electrostatics sSAPT0         -73.30680732 [mEh]     -46.00071609 [kcal/mol]    -192.46699610 [kJ/mol]
    Exchange sSAPT0               107.31827803 [mEh]      67.34323617 [kcal/mol]     281.76410015 [kJ/mol]
    Induction sSAPT0              -35.98379119 [mEh]     -22.58016987 [kcal/mol]     -94.47543074 [kJ/mol]
    Dispersion sSAPT0             -21.44354197 [mEh]     -13.45602574 [kcal/mol]     -56.30001169 [kJ/mol]
  Total sSAPT0                    -23.41586245 [mEh]     -14.69367552 [kcal/mol]     -61.47833838 [kJ/mol]
  --------------------------------------------------------------------------------------------------------

*** Psi4 exiting successfully. Buy a developer a beer!
