                               Psi4 1.3.2 release

  ==> Input File <==

--------------------------------------------------------------------------
#psi4
#
memory 32 gb

molecule  {
0 1
  C        2.0083120    -0.3372920     0.0000040
  H        3.1030340    -0.4288200    -0.0000030
  O        1.2864570    -1.3299810     0.0000000
  N        1.5810970     0.9343630     0.0000010
  H        0.5827550     1.1459700     0.0000010
  H        2.1087903     1.6984599    -0.0000030
--
0 1
  C       -2.1516897     0.3570729     0.0000010
  H       -3.2464117     0.4486009    -0.0000010
  O       -1.4298347     1.3497619    -0.0000000
  N       -1.7244747    -0.9145821    -0.0000000
  H       -0.7261327    -1.1261891    -0.0000000
  H       -2.3955457    -1.6588981    -0.0000010
units angstrom
no_reorient  #important for SAPT in psi4, default
symmetry c1  #important for SAPT in psi4, default
}

set {
basis aug-cc-pVTZ
scf_type DF
freeze_core True
}
energy('sapt2+')
--------------------------------------------------------------------------

  //              Dimer HF             //
    Molecular point group: c1
  Charge       = 0
  Multiplicity = 1
  Basis Set: AUG-CC-PVTZ
    Blend: AUG-CC-PVTZ
  Basis Set: (AUG-CC-PVTZ AUX)
    Blend: AUG-CC-PVTZ-JKFIT
  @DF-RHF Final Energy:  -338.02047235819123
    Total Energy =                       -338.0204723581912276
  //            Monomer A HF           //
    Molecular point group: c1
  Multiplicity = 1
  Basis Set: AUG-CC-PVTZ
    Blend: AUG-CC-PVTZ
  Basis Set: (AUG-CC-PVTZ AUX)
    Blend: AUG-CC-PVTZ-JKFIT
  @DF-RHF Final Energy:  -168.99796511238893
    Total Energy =                       -168.9979651123889255
  //            Monomer B HF           //
    Molecular point group: c1

    Geometry (in Angstrom), charge = 0, multiplicity = 1:

       Center              X                  Y                   Z               Mass
    ------------   -----------------  -----------------  -----------------  -----------------
      Gh(C)           2.081605636064    -0.347403852022     0.000003256485    12.000000000000
      Gh(H)           3.176327636064    -0.438931852022    -0.000003743515     1.007825032230
      Gh(O)           1.359750636064    -1.340092852022    -0.000000743515    15.994914619570
      Gh(N)           1.654390636064     0.924251147978     0.000000256485    14.003074004430
      Gh(H)           0.656048636064     1.135858147978     0.000000256485     1.007825032230
      Gh(H)           2.182083936064     1.688348047978    -0.000003743515     1.007825032230
         C           -2.078396063936     0.346961047978     0.000000256485    12.000000000000
         H           -3.173118063936     0.438489047978    -0.000001743515     1.007825032230
         O           -1.356541063936     1.339650047978    -0.000000743515    15.994914619570
         N           -1.651181063936    -0.924693952022    -0.000000743515    14.003074004430
         H           -0.652839063936    -1.136300952022    -0.000000743515     1.007825032230
         H           -2.322252063936    -1.669009952022    -0.000001743515     1.007825032230

  Charge       = 0
  Multiplicity = 1
  Basis Set: AUG-CC-PVTZ
    Blend: AUG-CC-PVTZ
  Basis Set: (AUG-CC-PVTZ AUX)
    Blend: AUG-CC-PVTZ-JKFIT

    Orbital Energies [Eh]
    ---------------------

    Doubly Occupied:

       1A    -20.526941     2A    -15.602093     3A    -11.356551
       4A     -1.376934     5A     -1.227377     6A     -0.854907
       7A     -0.756207     8A     -0.677330     9A     -0.603166
      10A     -0.571946    11A     -0.435225    12A     -0.422133

  @DF-RHF Final Energy:  -169.00326086080142

   => Energetics <=

    Nuclear Repulsion Energy =             71.1611145121232624
    One-Electron Energy =                -371.5071282128974985
    Two-Electron Energy =                 131.3427528399728033
    Total Energy =                       -169.0032608608014186

  Dipole Moment: [D]
     X:    -1.5819      Y:    -4.1739      Z:    -0.0000     Total:     4.4636

    SAPT Results
  --------------------------------------------------------------------------------------------------------
    Electrostatics                -29.03791470 [mEh]     -18.22156657 [kcal/mol]     -76.23903453 [kJ/mol]
      Elst10,r                    -30.50223841 [mEh]     -19.14044357 [kcal/mol]     -80.08361590 [kJ/mol]
      Elst12,r                      1.46432371 [mEh]       0.91887700 [kcal/mol]       3.84458137 [kJ/mol]

    Exchange                       24.69081085 [mEh]      15.49371772 [kcal/mol]      64.82571495 [kJ/mol]
      Exch10                       21.02595642 [mEh]      13.19398685 [kcal/mol]      55.20364097 [kJ/mol]
      Exch10(S^2)                  20.86504322 [mEh]      13.09301229 [kcal/mol]      54.78116343 [kJ/mol]
      Exch11(S^2)                   0.06136257 [mEh]       0.03850559 [kcal/mol]       0.16110739 [kJ/mol]
      Exch12(S^2)                   3.60349187 [mEh]       2.26122528 [kcal/mol]       9.46096659 [kJ/mol]

    Induction                     -10.58871008 [mEh]      -6.64451589 [kcal/mol]     -27.80065448 [kJ/mol]
      Ind20,r                     -11.33550448 [mEh]      -7.11313645 [kcal/mol]     -29.76136290 [kJ/mol]
      Ind22                        -1.53908044 [mEh]      -0.96578755 [kcal/mol]      -4.04085513 [kJ/mol]
      Exch-Ind20,r                  5.30636926 [mEh]       3.32979698 [kcal/mol]      13.93187057 [kJ/mol]
      Exch-Ind22                    0.72047337 [mEh]       0.45210387 [kcal/mol]       1.89160257 [kJ/mol]
      delta HF,r (2)               -3.74096780 [mEh]      -2.34749273 [kcal/mol]      -9.82190960 [kJ/mol]

    Dispersion                     -9.42360033 [mEh]      -5.91339849 [kcal/mol]     -24.74165926 [kJ/mol]
      Disp20                       -9.59830845 [mEh]      -6.02302948 [kcal/mol]     -25.20035536 [kJ/mol]
      Disp21                        0.56272215 [mEh]       0.35311348 [kcal/mol]       1.47742679 [kJ/mol]
      Disp22 (SDQ)                 -0.13023479 [mEh]      -0.08172356 [kcal/mol]      -0.34193139 [kJ/mol]
      Disp22 (T)                   -1.61509067 [mEh]      -1.01348470 [kcal/mol]      -4.24041997 [kJ/mol]
      Est. Disp22 (T)              -1.84836570 [mEh]      -1.15986699 [kcal/mol]      -4.85288348 [kJ/mol]
      Exch-Disp20                   1.59058646 [mEh]       0.99810807 [kcal/mol]       4.17608418 [kJ/mol]

  Total HF                        -19.24638500 [mEh]     -12.07728892 [kcal/mol]     -50.53137686 [kJ/mol]
  Total SAPT0                     -27.25410699 [mEh]     -17.10221033 [kcal/mol]     -71.55564804 [kJ/mol]
  Total SAPT2                     -22.94353591 [mEh]     -14.39728615 [kcal/mol]     -60.23824524 [kJ/mol]
  Total SAPT2+                    -24.35941426 [mEh]     -15.28576322 [kcal/mol]     -63.95563332 [kJ/mol]

  Special recipe for scaled SAPT0 (see Manual):
    Electrostatics sSAPT0         -30.50223841 [mEh]     -19.14044357 [kcal/mol]     -80.08361590 [kJ/mol]
    Exchange sSAPT0                21.02595642 [mEh]      13.19398685 [kcal/mol]      55.20364097 [kJ/mol]
    Induction sSAPT0               -9.64638409 [mEh]      -6.05319741 [kcal/mol]     -25.32657795 [kJ/mol]
    Dispersion sSAPT0              -7.97063719 [mEh]      -5.00165035 [kcal/mol]     -20.92690506 [kJ/mol]
  Total sSAPT0                    -27.09330327 [mEh]     -17.00130448 [kcal/mol]     -71.13345794 [kJ/mol]
  --------------------------------------------------------------------------------------------------------

*** Psi4 exiting successfully. Buy a developer a beer!
