                               Psi4 1.3.2 release

  ==> Input File <==

--------------------------------------------------------------------------
#psi4
#
memory 32 gb

molecule  {
0 1
  C       -1.9521150     0.2323370    -0.0000010
  H       -3.0450720     0.2485030     0.0000010
  O       -1.2823360     1.2482650     0.0000000
  O       -1.5045270    -1.0066940    -0.0000010
  H       -0.5061810    -1.0124010    -0.0000010
--
0 1
  C        1.1197820    -0.1889040     0.0000027
  H        2.2024780    -0.3609300    -0.0000013
  O        0.3303930    -1.1320370    -0.0000003
  N        0.7749490     1.1042480     0.0000007
  H       -0.2104560     1.3555680    -0.0000003
  H        1.4851630     1.8111280    -0.0000013
units angstrom
no_reorient  #important for SAPT in psi4, default
symmetry c1  #important for SAPT in psi4, default
}

set {
basis aug-cc-pVTZ
scf_type DF
freeze_core True
}
energy('sapt2+')
--------------------------------------------------------------------------

  //              Dimer HF             //
    Molecular point group: c1
  Charge       = 0
  Multiplicity = 1
  Basis Set: AUG-CC-PVTZ
    Blend: AUG-CC-PVTZ
  Basis Set: (AUG-CC-PVTZ AUX)
    Blend: AUG-CC-PVTZ-JKFIT
  @DF-RHF Final Energy:  -357.61591234783816
    Total Energy =                       -357.6159123478381616
  //            Monomer A HF           //
    Molecular point group: c1
  Multiplicity = 1
  Basis Set: AUG-CC-PVTZ
    Blend: AUG-CC-PVTZ
  Basis Set: (AUG-CC-PVTZ AUX)
    Blend: AUG-CC-PVTZ-JKFIT
  @DF-RHF Final Energy:  -188.84149689126096
    Total Energy =                       -188.8414968912609595
  //            Monomer B HF           //
    Molecular point group: c1

    Geometry (in Angstrom), charge = 0, multiplicity = 1:

       Center              X                  Y                   Z               Mass
    ------------   -----------------  -----------------  -----------------  -----------------
      Gh(C)          -1.529141295466     0.190602318176    -0.000001071254    12.000000000000
      Gh(H)          -2.622098295466     0.206768318176     0.000000928746     1.007825032230
      Gh(O)          -0.859362295466     1.206530318176    -0.000000071254    15.994914619570
      Gh(O)          -1.081553295466    -1.048428681824    -0.000001071254    15.994914619570
      Gh(H)          -0.083207295466    -1.054135681824    -0.000001071254     1.007825032230
         C            1.542755704534    -0.230638681824     0.000002628746    12.000000000000
         H            2.625451704534    -0.402664681824    -0.000001371254     1.007825032230
         O            0.753366704534    -1.173771681824    -0.000000371254    15.994914619570
         N            1.197922704534     1.062513318176     0.000000628746    14.003074004430
         H            0.212517704534     1.313833318176    -0.000000371254     1.007825032230
         H            1.908136704534     1.769393318176    -0.000001371254     1.007825032230

  Charge       = 0
  Multiplicity = 1
  Basis Set: AUG-CC-PVTZ
    Blend: AUG-CC-PVTZ
  Basis Set: (AUG-CC-PVTZ AUX)
    Blend: AUG-CC-PVTZ-JKFIT

    Orbital Energies [Eh]
    ---------------------

    Doubly Occupied:

       1A    -20.525843     2A    -15.602095     3A    -11.355892
       4A     -1.375629     5A     -1.228439     6A     -0.855226
       7A     -0.758861     8A     -0.677436     9A     -0.602256
      10A     -0.571993    11A     -0.434800    12A     -0.421706

  @DF-RHF Final Energy:  -169.00356307709359

   => Energetics <=

    Nuclear Repulsion Energy =             71.2263167891488962
    One-Electron Energy =                -371.6394028853594023
    Two-Electron Energy =                 131.4095230191169321
    Total Energy =                       -169.0035630770935882

  Dipole Moment: [D]
     X:     1.8663      Y:     4.0710      Z:    -0.0000     Total:     4.4784

    SAPT Results
  --------------------------------------------------------------------------------------------------------
    Electrostatics               -207.20821815 [mEh]    -130.02511993 [kcal/mol]    -544.02510180 [kJ/mol]
      Elst10,r                   -209.47204991 [mEh]    -131.44569581 [kcal/mol]    -549.96879128 [kJ/mol]
      Elst12,r                      2.26383176 [mEh]       1.42057588 [kcal/mol]       5.94368948 [kJ/mol]

    Exchange                      728.51962473 [mEh]     457.15296635 [kcal/mol]    1912.72801121 [kJ/mol]
      Exch10                      716.18666664 [mEh]     449.41391831 [kcal/mol]    1880.34783422 [kJ/mol]
      Exch10(S^2)                 612.20810222 [mEh]     384.16638407 [kcal/mol]    1607.35215093 [kJ/mol]
      Exch11(S^2)                  -3.87458557 [mEh]      -2.43133915 [kcal/mol]     -10.17272301 [kJ/mol]
      Exch12(S^2)                  16.20754365 [mEh]      10.17038719 [kcal/mol]      42.55290000 [kJ/mol]

    Induction                    -302.93416824 [mEh]    -190.09406050 [kcal/mol]    -795.35354914 [kJ/mol]
      Ind20,r                    -514.90690170 [mEh]    -323.10895893 [kcal/mol]   -1351.88788417 [kJ/mol]
      Ind22                       -51.82690921 [mEh]     -32.52187653 [kcal/mol]    -136.07153138 [kJ/mol]
      Exch-Ind20,r                262.88083738 [mEh]     164.96021593 [kcal/mol]     690.19354345 [kJ/mol]
      Exch-Ind22                   26.45973718 [mEh]      16.60373575 [kcal/mol]      69.47003040 [kJ/mol]
      delta HF,r (2)              -25.54093189 [mEh]     -16.02717673 [kcal/mol]     -67.05770745 [kJ/mol]

    Dispersion                    -82.63204279 [mEh]     -51.85238969 [kcal/mol]    -216.95039846 [kJ/mol]
      Disp20                     -102.46195840 [mEh]     -64.29584960 [kcal/mol]    -269.01383472 [kJ/mol]
      Disp21                       18.53314073 [mEh]      11.62972139 [kcal/mol]      48.65875429 [kJ/mol]
      Disp22 (SDQ)                 -3.80831226 [mEh]      -2.38975202 [kcal/mol]      -9.99872246 [kJ/mol]
      Disp22 (T)                  -14.00769748 [mEh]      -8.78996288 [kcal/mol]     -36.77720467 [kJ/mol]
      Est. Disp22 (T)             -14.99213891 [mEh]      -9.40770920 [kcal/mol]     -39.36185528 [kJ/mol]
      Exch-Disp20                  20.09722604 [mEh]      12.61119974 [kcal/mol]      52.76525971 [kJ/mol]

  Total HF                        229.14762052 [mEh]     143.79230277 [kcal/mol]     601.62699478 [kJ/mol]
  Total SAPT0                     146.78288816 [mEh]      92.10765291 [kcal/mol]     385.37841977 [kJ/mol]
  Total SAPT2                     136.01250598 [mEh]      85.34913605 [kcal/mol]     357.10078525 [kJ/mol]
  Total SAPT2+                    135.74519554 [mEh]      85.18139622 [kcal/mol]     356.39896180 [kJ/mol]

  Special recipe for scaled SAPT0 (see Manual):
    Electrostatics sSAPT0        -209.47204991 [mEh]    -131.44569581 [kcal/mol]    -549.96879128 [kJ/mol]
    Exchange sSAPT0               716.18666664 [mEh]     449.41391831 [kcal/mol]    1880.34783422 [kJ/mol]
    Induction sSAPT0             -119.58516467 [mEh]     -75.04082375 [kcal/mol]    -313.97080658 [kJ/mol]
    Dispersion sSAPT0             -70.28702973 [mEh]     -44.10577704 [kcal/mol]    -184.53857114 [kJ/mol]
  Total sSAPT0                    316.84242233 [mEh]     198.82162171 [kcal/mol]     831.86966522 [kJ/mol]
  --------------------------------------------------------------------------------------------------------

*** Psi4 exiting successfully. Buy a developer a beer!
