                               Psi4 1.3.2 release

  ==> Input File <==

--------------------------------------------------------------------------
#psi4
#
memory 32 gb

molecule  {
0 1
  C        1.9047060    -0.1798760     0.0000010
  H        2.9930900    -0.2590830    -0.0000010
  O        1.1798480    -1.1602640     0.0000000
  O        1.5170880     1.0770050     0.0000000
  H        0.5236580     1.1098660     0.0000010
--
0 1
  C       -2.0395764     0.1840218    -0.0000010
  H       -3.1279664     0.2631638     0.0000000
  O       -1.3147774     1.1644538     0.0000000
  O       -1.6518764    -1.0728332     0.0000000
  H       -0.6584304    -1.1056332     0.0000010
units angstrom
no_reorient  #important for SAPT in psi4, default
symmetry c1  #important for SAPT in psi4, default
}

set {
basis aug-cc-pVTZ
scf_type DF
freeze_core True
}
energy('sapt2+')
--------------------------------------------------------------------------

  //              Dimer HF             //
    Molecular point group: c1
  Charge       = 0
  Multiplicity = 1
  Basis Set: AUG-CC-PVTZ
    Blend: AUG-CC-PVTZ
  Basis Set: (AUG-CC-PVTZ AUX)
    Blend: AUG-CC-PVTZ-JKFIT
  @DF-RHF Final Energy:  -377.70673200881026
    Total Energy =                       -377.7067320088102633
  //            Monomer A HF           //
    Molecular point group: c1
  Multiplicity = 1
  Basis Set: AUG-CC-PVTZ
    Blend: AUG-CC-PVTZ
  Basis Set: (AUG-CC-PVTZ AUX)
    Blend: AUG-CC-PVTZ-JKFIT
  @DF-RHF Final Energy:  -188.84143692002624
    Total Energy =                       -188.8414369200262399
  //            Monomer B HF           //
    Molecular point group: c1

    Geometry (in Angstrom), charge = 0, multiplicity = 1:

       Center              X                  Y                   Z               Mass
    ------------   -----------------  -----------------  -----------------  -----------------
      Gh(C)           1.972136194043    -0.181961309567     0.000000989047    12.000000000000
      Gh(H)           3.060520194043    -0.261168309567    -0.000001010953     1.007825032230
      Gh(O)           1.247278194043    -1.162349309567    -0.000000010953    15.994914619570
      Gh(O)           1.584518194043     1.074919690433    -0.000000010953    15.994914619570
      Gh(H)           0.591088194043     1.107780690433     0.000000989047     1.007825032230
         C           -1.972146205957     0.181936490433    -0.000001010953    12.000000000000
         H           -3.060536205957     0.261078490433    -0.000000010953     1.007825032230
         O           -1.247347205957     1.162368490433    -0.000000010953    15.994914619570
         O           -1.584446205957    -1.074918509567    -0.000000010953    15.994914619570
         H           -0.591000205957    -1.107718509567     0.000000989047     1.007825032230

  Charge       = 0
  Multiplicity = 1
  Basis Set: AUG-CC-PVTZ
    Blend: AUG-CC-PVTZ
  Basis Set: (AUG-CC-PVTZ AUX)
    Blend: AUG-CC-PVTZ-JKFIT

    Orbital Energies [Eh]
    ---------------------

    Doubly Occupied:

       1A    -20.638363     2A    -20.561671     3A    -11.396530
       4A     -1.482744     5A     -1.369393     6A     -0.901977
       7A     -0.731354     8A     -0.712073     9A     -0.644354
      10A     -0.597456    11A     -0.491036    12A     -0.470919

  @DF-RHF Final Energy:  -188.84143574528372

   => Energetics <=

    Nuclear Repulsion Energy =             70.1580372184758971
    One-Electron Energy =                -398.0032050183178285
    Two-Electron Energy =                 139.0037320545582133
    Total Energy =                       -188.8414357452837180

  Dipole Moment: [D]
     X:    -0.4969      Y:    -1.9980      Z:    -0.0000     Total:     2.0589

    SAPT Results
  --------------------------------------------------------------------------------------------------------
    Electrostatics                -36.85072053 [mEh]     -23.12417625 [kcal/mol]     -96.75155343 [kJ/mol]
      Elst10,r                    -39.06102598 [mEh]     -24.51116386 [kcal/mol]    -102.55470957 [kJ/mol]
      Elst12,r                      2.21030544 [mEh]       1.38698761 [kcal/mol]       5.80315614 [kJ/mol]

    Exchange                       37.41572786 [mEh]      23.47872370 [kcal/mol]      98.23497996 [kJ/mol]
      Exch10                       31.74004988 [mEh]      19.91718200 [kcal/mol]      83.33348949 [kJ/mol]
      Exch10(S^2)                  31.38252742 [mEh]      19.69283327 [kcal/mol]      82.39481440 [kJ/mol]
      Exch11(S^2)                   0.16026323 [mEh]       0.10056670 [kcal/mol]       0.42077106 [kJ/mol]
      Exch12(S^2)                   5.51541474 [mEh]       3.46097500 [kcal/mol]      14.48071942 [kJ/mol]

    Induction                     -17.99718482 [mEh]     -11.29340398 [kcal/mol]     -47.25160224 [kJ/mol]
      Ind20,r                     -19.30655674 [mEh]     -12.11504726 [kcal/mol]     -50.68935774 [kJ/mol]
      Ind22                        -2.84189125 [mEh]      -1.78331368 [kcal/mol]      -7.46138446 [kJ/mol]
      Exch-Ind20,r                  9.39599412 [mEh]       5.89607533 [kcal/mol]      24.66917918 [kJ/mol]
      Exch-Ind22                    1.38307384 [mEh]       0.86789194 [kcal/mol]       3.63125986 [kJ/mol]
      delta HF,r (2)               -6.62780479 [mEh]      -4.15901030 [kcal/mol]     -17.40129908 [kJ/mol]

    Dispersion                    -11.80470938 [mEh]      -7.40756697 [kcal/mol]     -30.99326021 [kJ/mol]
      Disp20                      -11.99701190 [mEh]      -7.52823863 [kcal/mol]     -31.49815041 [kJ/mol]
      Disp21                        0.89592335 [mEh]       0.56220039 [kcal/mol]       2.35224643 [kJ/mol]
      Disp22 (SDQ)                 -0.46070659 [mEh]      -0.28909775 [kcal/mol]      -1.20958498 [kJ/mol]
      Disp22 (T)                   -2.10234032 [mEh]      -1.31923847 [kcal/mol]      -5.51969376 [kJ/mol]
      Est. Disp22 (T)              -2.40548929 [mEh]      -1.50946732 [kcal/mol]      -6.31561125 [kJ/mol]
      Exch-Disp20                   2.16257504 [mEh]       1.35703633 [kcal/mol]       5.67784000 [kJ/mol]

  Total HF                        -23.85934350 [mEh]     -14.97196408 [kcal/mol]     -62.64269773 [kJ/mol]
  Total SAPT0                     -33.69378036 [mEh]     -21.14316638 [kcal/mol]     -88.46300814 [kJ/mol]
  Total SAPT2                     -27.26661435 [mEh]     -17.11005883 [kcal/mol]     -71.58848612 [kJ/mol]
  Total SAPT2+                    -29.23688688 [mEh]     -18.34642350 [kcal/mol]     -76.76143592 [kJ/mol]

  Special recipe for scaled SAPT0 (see Manual):
    Electrostatics sSAPT0         -39.06102598 [mEh]     -24.51116386 [kcal/mol]    -102.55470957 [kJ/mol]
    Exchange sSAPT0                31.74004988 [mEh]      19.91718200 [kcal/mol]      83.33348949 [kJ/mol]
    Induction sSAPT0              -16.21356617 [mEh]     -10.17416638 [kcal/mol]     -42.56871213 [kJ/mol]
    Dispersion sSAPT0              -9.75968085 [mEh]      -6.12429219 [kcal/mol]     -25.62403853 [kJ/mol]
  Total sSAPT0                    -33.29422311 [mEh]     -20.89244043 [kcal/mol]     -87.41397074 [kJ/mol]
  --------------------------------------------------------------------------------------------------------

*** Psi4 exiting successfully. Buy a developer a beer!
