                               Psi4 1.3.2 release

  ==> Input File <==

--------------------------------------------------------------------------
#psi4
#
memory 32 gb

molecule  {
0 1
  C       -1.9644470     0.1609890    -0.0000020
  H       -3.0589320     0.1627090    -0.0000040
  O       -1.3160380     1.1929960    -0.0000020
  O       -1.4968300    -1.0660630     0.0000020
  H       -0.4778920    -1.0649310     0.0000090
--
0 1
  C        2.1421821    -0.1882372    -0.0000030
  H        3.2239981    -0.3104621    -0.0000050
  N        1.3243911    -1.1856042    -0.0000010
  H        1.8349861    -2.0591092    -0.0000010
  N        1.7273321     1.0885868     0.0000020
  H        0.7313151     1.2871198     0.0000010
  H        2.3942521     1.8332628     0.0000040
units angstrom
no_reorient  #important for SAPT in psi4, default
symmetry c1  #important for SAPT in psi4, default
}

set {
basis aug-cc-pVTZ
scf_type DF
freeze_core True
}
energy('sapt2+')
--------------------------------------------------------------------------

  //              Dimer HF             //
    Molecular point group: c1
  Charge       = 0
  Multiplicity = 1
  Basis Set: AUG-CC-PVTZ
    Blend: AUG-CC-PVTZ
  Basis Set: (AUG-CC-PVTZ AUX)
    Blend: AUG-CC-PVTZ-JKFIT
  @DF-RHF Final Energy:  -338.00896112999345
    Total Energy =                       -338.0089611299934518
  //            Monomer A HF           //
    Molecular point group: c1
  Multiplicity = 1
  Basis Set: AUG-CC-PVTZ
    Blend: AUG-CC-PVTZ
  Basis Set: (AUG-CC-PVTZ AUX)
    Blend: AUG-CC-PVTZ-JKFIT
  @DF-RHF Final Energy:  -188.83864362307742
    Total Energy =                       -188.8386436230774166
  //            Monomer B HF           //
    Molecular point group: c1

    Geometry (in Angstrom), charge = 0, multiplicity = 1:

       Center              X                  Y                   Z               Mass
    ------------   -----------------  -----------------  -----------------  -----------------
      Gh(C)          -2.015076623678     0.158854831583    -0.000001533938    12.000000000000
      Gh(H)          -3.109561623678     0.160574831583    -0.000003533938     1.007825032230
      Gh(O)          -1.366667623678     1.190861831583    -0.000001533938    15.994914619570
      Gh(O)          -1.547459623678    -1.068197168417     0.000002466062    15.994914619570
      Gh(H)          -0.528521623678    -1.067065168417     0.000009466062     1.007825032230
         C            2.091552476322    -0.190371368417    -0.000002533938    12.000000000000
         H            3.173368476322    -0.312596268417    -0.000004533938     1.007825032230
         N            1.273761476322    -1.187738368417    -0.000000533938    14.003074004430
         H            1.784356476322    -2.061243368417    -0.000000533938     1.007825032230
         N            1.676702476322     1.086452631583     0.000002466062    14.003074004430
         H            0.680685476322     1.284985631583     0.000001466062     1.007825032230
         H            2.343622476322     1.831128631583     0.000004466062     1.007825032230

  Charge       = 0
  Multiplicity = 1
  Basis Set: AUG-CC-PVTZ
    Blend: AUG-CC-PVTZ
  Basis Set: (AUG-CC-PVTZ AUX)
    Blend: AUG-CC-PVTZ-JKFIT

    Orbital Energies [Eh]
    ---------------------

    Doubly Occupied:

       1A    -15.580681     2A    -15.518367     3A    -11.313915
       4A     -1.260956     5A     -1.136089     6A     -0.830613
       7A     -0.749116     8A     -0.640568     9A     -0.618120
      10A     -0.530872    11A     -0.417500    12A     -0.358862

  @DF-RHF Final Energy:  -149.14369471450982

   => Energetics <=

    Nuclear Repulsion Energy =             72.3341928579092155
    One-Electron Energy =                -345.0444560604041158
    Two-Electron Energy =                 123.5665684879850801
    Total Energy =                       -149.1436947145098202

  Dipole Moment: [D]
     X:     2.3217      Y:     2.2610      Z:    -0.0000     Total:     3.2408

    SAPT Results
  --------------------------------------------------------------------------------------------------------
    Electrostatics                -42.69716621 [mEh]     -26.79287630 [kcal/mol]    -112.10139445 [kJ/mol]
      Elst10,r                    -44.15347592 [mEh]     -27.70672444 [kcal/mol]    -115.92493505 [kJ/mol]
      Elst12,r                      1.45630971 [mEh]       0.91384814 [kcal/mol]       3.82354060 [kJ/mol]

    Exchange                       41.54734742 [mEh]      26.07135412 [kcal/mol]     109.08254562 [kJ/mol]
      Exch10                       36.72403291 [mEh]      23.04467856 [kcal/mol]      96.41893512 [kJ/mol]
      Exch10(S^2)                  36.12055127 [mEh]      22.66598812 [kcal/mol]      94.83449430 [kJ/mol]
      Exch11(S^2)                   0.47420256 [mEh]       0.29756660 [kcal/mol]       1.24501865 [kJ/mol]
      Exch12(S^2)                   4.34911195 [mEh]       2.72910895 [kcal/mol]      11.41859186 [kJ/mol]

    Induction                     -20.39531102 [mEh]     -12.79825088 [kcal/mol]     -53.54788170 [kJ/mol]
      Ind20,r                     -22.29588758 [mEh]     -13.99088068 [kcal/mol]     -58.53784478 [kJ/mol]
      Ind22                        -2.40329895 [mEh]      -1.50809286 [kcal/mol]      -6.30986052 [kJ/mol]
      Exch-Ind20,r                 11.14504795 [mEh]       6.99362317 [kcal/mol]      29.26131935 [kJ/mol]
      Exch-Ind22                    1.20133733 [mEh]       0.75385055 [kcal/mol]       3.15411072 [kJ/mol]
      delta HF,r (2)               -8.04250976 [mEh]      -5.04675107 [kcal/mol]     -21.11560647 [kJ/mol]

    Dispersion                    -12.56730600 [mEh]      -7.88610357 [kcal/mol]     -32.99545735 [kJ/mol]
      Disp20                      -13.43765760 [mEh]      -8.43225745 [kcal/mol]     -35.28056517 [kJ/mol]
      Disp21                        0.99097198 [mEh]       0.62184430 [kcal/mol]       2.60179657 [kJ/mol]
      Disp22 (SDQ)                 -0.16269962 [mEh]      -0.10209555 [kcal/mol]      -0.42716779 [kJ/mol]
      Disp22 (T)                   -2.24120517 [mEh]      -1.40637747 [kcal/mol]      -5.88428335 [kJ/mol]
      Est. Disp22 (T)              -2.56145096 [mEh]      -1.60733474 [kcal/mol]      -6.72508857 [kJ/mol]
      Exch-Disp20                   2.60353021 [mEh]       1.63373987 [kcal/mol]       6.83556762 [kJ/mol]

  Total HF                        -26.62279241 [mEh]     -16.70605445 [kcal/mol]     -69.89813183 [kJ/mol]
  Total SAPT0                     -37.45691980 [mEh]     -23.50457203 [kcal/mol]     -98.34312939 [kJ/mol]
  Total SAPT2                     -32.37925720 [mEh]     -20.31829065 [kcal/mol]     -85.01172807 [kJ/mol]
  Total SAPT2+                    -34.11243581 [mEh]     -21.40587664 [kcal/mol]     -89.56218787 [kJ/mol]

  Special recipe for scaled SAPT0 (see Manual):
    Electrostatics sSAPT0         -44.15347592 [mEh]     -27.70672444 [kcal/mol]    -115.92493505 [kJ/mol]
    Exchange sSAPT0                36.72403291 [mEh]      23.04467856 [kcal/mol]      96.41893512 [kJ/mol]
    Induction sSAPT0              -18.62534901 [mEh]     -11.68758296 [kcal/mol]     -48.90084710 [kJ/mol]
    Dispersion sSAPT0             -10.70144011 [mEh]      -6.71525505 [kcal/mol]     -28.09662714 [kJ/mol]
  Total sSAPT0                    -36.75623213 [mEh]     -23.06488388 [kcal/mol]     -96.50347417 [kJ/mol]
  --------------------------------------------------------------------------------------------------------

*** Psi4 exiting successfully. Buy a developer a beer!
