                               Psi4 1.3.2 release

  ==> Input File <==

--------------------------------------------------------------------------
#psi4
#
memory 32 gb

molecule  {
0 1
  C        2.1022740    -0.1999910     0.0000010
  H        3.1931760    -0.2048250     0.0000000
  N        1.3929100    -1.2773340     0.0000000
  H        2.0119970    -2.0793170    -0.0000010
  N        1.5658380     1.0343930     0.0000000
  H        0.5512430     1.1716950     0.0000000
  H        2.1722770     1.8295020    -0.0000010
--
0 1
  C       -2.2502114     0.2121381     0.0000000
  H       -3.3411134     0.2169721     0.0000000
  N       -1.5408474     1.2894811     0.0000000
  H       -2.1599344     2.0914640     0.0000000
  N       -1.7137754    -1.0222459     0.0000000
  H       -0.6991804    -1.1595479     0.0000000
  H       -2.3202144    -1.8173549     0.0000000
units angstrom
no_reorient  #important for SAPT in psi4, default
symmetry c1  #important for SAPT in psi4, default
}

set {
basis aug-cc-pVTZ
scf_type DF
freeze_core True
}
energy('sapt2+')
--------------------------------------------------------------------------

  //              Dimer HF             //
    Molecular point group: c1
  Charge       = 0
  Multiplicity = 1
  Basis Set: AUG-CC-PVTZ
    Blend: AUG-CC-PVTZ
  Basis Set: (AUG-CC-PVTZ AUX)
    Blend: AUG-CC-PVTZ-JKFIT
  @DF-RHF Final Energy:  -298.30390596556691
    Total Energy =                       -298.3039059655669121
  //            Monomer A HF           //
    Molecular point group: c1
  Multiplicity = 1
  Basis Set: AUG-CC-PVTZ
    Blend: AUG-CC-PVTZ
  Basis Set: (AUG-CC-PVTZ AUX)
    Blend: AUG-CC-PVTZ-JKFIT
  @DF-RHF Final Energy:  -149.14308107490837
    Total Energy =                       -149.1430810749083662
  //            Monomer B HF           //
    Molecular point group: c1

    Geometry (in Angstrom), charge = 0, multiplicity = 1:

       Center              X                  Y                   Z               Mass
    ------------   -----------------  -----------------  -----------------  -----------------
      Gh(C)           2.176242700000    -0.206064548856     0.000000886638    12.000000000000
      Gh(H)           3.267144700000    -0.210898548856    -0.000000113362     1.007825032230
      Gh(N)           1.466878700000    -1.283407548856    -0.000000113362    14.003074004430
      Gh(H)           2.085965700000    -2.085390548856    -0.000001113362     1.007825032230
      Gh(N)           1.639806700000     1.028319451144    -0.000000113362    14.003074004430
      Gh(H)           0.625211700000     1.165621451144    -0.000000113362     1.007825032230
      Gh(H)           2.246245700000     1.823428451144    -0.000001113362     1.007825032230
         C           -2.176242700000     0.206064551144    -0.000000113362    12.000000000000
         H           -3.267144700000     0.210898551144    -0.000000113362     1.007825032230
         N           -1.466878700000     1.283407551144    -0.000000113362    14.003074004430
         H           -2.085965700000     2.085390451144    -0.000000113362     1.007825032230
         N           -1.639806700000    -1.028319448856    -0.000000113362    14.003074004430
         H           -0.625211700000    -1.165621448856    -0.000000113362     1.007825032230
         H           -2.246245700000    -1.823428448856    -0.000000113362     1.007825032230

  Charge       = 0
  Multiplicity = 1
  Basis Set: AUG-CC-PVTZ
    Blend: AUG-CC-PVTZ
  Basis Set: (AUG-CC-PVTZ AUX)
    Blend: AUG-CC-PVTZ-JKFIT

    Orbital Energies [Eh]
    ---------------------

    Doubly Occupied:

       1A    -15.581658     2A    -15.519545     3A    -11.314763
       4A     -1.259003     5A     -1.137051     6A     -0.829941
       7A     -0.745815     8A     -0.639653     9A     -0.615825
      10A     -0.530069    11A     -0.419649    12A     -0.359460

  @DF-RHF Final Energy:  -149.14308107642134

   => Energetics <=

    Nuclear Repulsion Energy =             72.1807090482597431
    One-Electron Energy =                -344.7427134168511884
    Two-Electron Energy =                 123.4189232921700921
    Total Energy =                       -149.1430810764213390

  Dipole Moment: [D]
     X:    -2.0904      Y:    -2.5220      Z:     0.0000     Total:     3.2757

    SAPT Results
  --------------------------------------------------------------------------------------------------------
    Electrostatics                -32.05357539 [mEh]     -20.11392222 [kcal/mol]     -84.15665059 [kJ/mol]
      Elst10,r                    -32.23180334 [mEh]     -20.22576195 [kcal/mol]     -84.62458802 [kJ/mol]
      Elst12,r                      0.17822795 [mEh]       0.11183973 [kcal/mol]       0.46793743 [kJ/mol]

    Exchange                       29.18649243 [mEh]      18.31480050 [kcal/mol]      76.62912531 [kJ/mol]
      Exch10                       25.98993129 [mEh]      16.30892810 [kcal/mol]      68.23655519 [kJ/mol]
      Exch10(S^2)                  25.72476357 [mEh]      16.14253285 [kcal/mol]      67.54035746 [kJ/mol]
      Exch11(S^2)                   0.28435403 [mEh]       0.17843485 [kcal/mol]       0.74657141 [kJ/mol]
      Exch12(S^2)                   2.91220711 [mEh]       1.82743755 [kcal/mol]       7.64599871 [kJ/mol]

    Induction                     -12.24209992 [mEh]      -7.68203368 [kcal/mol]     -32.14162892 [kJ/mol]
      Ind20,r                     -13.69896554 [mEh]      -8.59623066 [kcal/mol]     -35.96662908 [kJ/mol]
      Ind22                        -1.46925586 [mEh]      -0.92197197 [kcal/mol]      -3.85753074 [kJ/mol]
      Exch-Ind20,r                  6.79792423 [mEh]       4.26576186 [kcal/mol]      17.84794762 [kJ/mol]
      Exch-Ind22                    0.72909812 [mEh]       0.45751598 [kcal/mol]       1.91424685 [kJ/mol]
      delta HF,r (2)               -4.60090087 [mEh]      -2.88710888 [kcal/mol]     -12.07966357 [kJ/mol]

    Dispersion                    -10.57903908 [mEh]      -6.63844725 [kcal/mol]     -27.77526329 [kJ/mol]
      Disp20                      -11.41480271 [mEh]      -7.16289684 [kcal/mol]     -29.96956038 [kJ/mol]
      Disp21                        0.69466031 [mEh]       0.43590593 [kcal/mol]       1.82383040 [kJ/mol]
      Disp22 (SDQ)                  0.15314069 [mEh]       0.09609723 [kcal/mol]       0.40207082 [kJ/mol]
      Disp22 (T)                   -1.81578473 [mEh]      -1.13942212 [kcal/mol]      -4.76734215 [kJ/mol]
      Est. Disp22 (T)              -2.08817510 [mEh]      -1.31034966 [kcal/mol]      -5.48250296 [kJ/mol]
      Exch-Disp20                   2.07613772 [mEh]       1.30279609 [kcal/mol]       5.45089883 [kJ/mol]

  Total HF                        -17.74381424 [mEh]     -11.13441153 [kcal/mol]     -46.58637786 [kJ/mol]
  Total SAPT0                     -27.08247922 [mEh]     -16.99451229 [kcal/mol]     -71.10503941 [kJ/mol]
  Total SAPT2                     -24.44784787 [mEh]     -15.34125615 [kcal/mol]     -64.18781574 [kJ/mol]
  Total SAPT2+                    -25.68822197 [mEh]     -16.11960265 [kcal/mol]     -67.44441748 [kJ/mol]

  Special recipe for scaled SAPT0 (see Manual):
    Electrostatics sSAPT0         -32.23180334 [mEh]     -20.22576195 [kcal/mol]     -84.62458802 [kJ/mol]
    Exchange sSAPT0                25.98993129 [mEh]      16.30892810 [kcal/mol]      68.23655519 [kJ/mol]
    Induction sSAPT0              -11.28955134 [mEh]      -7.08430042 [kcal/mol]     -29.64071296 [kJ/mol]
    Dispersion sSAPT0              -9.27379921 [mEh]      -5.81939686 [kcal/mol]     -24.34835647 [kJ/mol]
  Total sSAPT0                    -26.80522261 [mEh]     -16.82053113 [kcal/mol]     -70.37710226 [kJ/mol]
  --------------------------------------------------------------------------------------------------------

*** Psi4 exiting successfully. Buy a developer a beer!
