                               Psi4 1.3.2 release

  ==> Input File <==

--------------------------------------------------------------------------
#psi4
#
memory 32 gb

molecule  {
0 1
  C       -1.9644470     0.1609890    -0.0000020
  H       -3.0589320     0.1627090    -0.0000040
  O       -1.3160380     1.1929960    -0.0000020
  O       -1.4968300    -1.0660630     0.0000020
  H       -0.4778920    -1.0649310     0.0000090
--
0 1
  C        1.7232828    -0.1722407    -0.0000031
  H        2.8050987    -0.2944657    -0.0000051
  N        0.9054918    -1.1696077    -0.0000010
  H        1.4160868    -2.0431127    -0.0000010
  N        1.3084328     1.1045833     0.0000019
  H        0.3124158     1.3031163     0.0000010
  H        1.9753527     1.8492593     0.0000039
units angstrom
no_reorient  #important for SAPT in psi4, default
symmetry c1  #important for SAPT in psi4, default
}

set {
basis aug-cc-pVTZ
scf_type DF
freeze_core True
}
energy('sapt2+')
--------------------------------------------------------------------------

  //              Dimer HF             //
    Molecular point group: c1
  Charge       = 0
  Multiplicity = 1
  Basis Set: AUG-CC-PVTZ
    Blend: AUG-CC-PVTZ
  Basis Set: (AUG-CC-PVTZ AUX)
    Blend: AUG-CC-PVTZ-JKFIT
  @DF-RHF Final Energy:  -337.99670697363302
    Total Energy =                       -337.9967069736330245
  //            Monomer A HF           //
    Molecular point group: c1
  Multiplicity = 1
  Basis Set: AUG-CC-PVTZ
    Blend: AUG-CC-PVTZ
  Basis Set: (AUG-CC-PVTZ AUX)
    Blend: AUG-CC-PVTZ-JKFIT
  @DF-RHF Final Energy:  -188.83876288286993
    Total Energy =                       -188.8387628828699292
  //            Monomer B HF           //
    Molecular point group: c1

    Geometry (in Angstrom), charge = 0, multiplicity = 1:

       Center              X                  Y                   Z               Mass
    ------------   -----------------  -----------------  -----------------  -----------------
      Gh(C)          -1.810204826143     0.151031397158    -0.000001502820    12.000000000000
      Gh(H)          -2.904689826143     0.152751397158    -0.000003502820     1.007825032230
      Gh(O)          -1.161795826143     1.183038397158    -0.000001502820    15.994914619570
      Gh(O)          -1.342587826143    -1.076020602842     0.000002497180    15.994914619570
      Gh(H)          -0.323649826143    -1.074888602842     0.000009497180     1.007825032230
         C            1.877524973857    -0.182198302842    -0.000002602820    12.000000000000
         H            2.959340873857    -0.304423302842    -0.000004602820     1.007825032230
         N            1.059733973857    -1.179565302842    -0.000000502820    14.003074004430
         H            1.570328973857    -2.053070302842    -0.000000502820     1.007825032230
         N            1.462674973857     1.094625697158     0.000002397180    14.003074004430
         H            0.466657973857     1.293158697158     0.000001497180     1.007825032230
         H            2.129594873857     1.839301697158     0.000004397180     1.007825032230

  Charge       = 0
  Multiplicity = 1
  Basis Set: AUG-CC-PVTZ
    Blend: AUG-CC-PVTZ
  Basis Set: (AUG-CC-PVTZ AUX)
    Blend: AUG-CC-PVTZ-JKFIT

    Orbital Energies [Eh]
    ---------------------

    Doubly Occupied:

       1A    -15.580671     2A    -15.518346     3A    -11.313917
       4A     -1.260949     5A     -1.136077     6A     -0.830608
       7A     -0.749111     8A     -0.640561     9A     -0.618113
      10A     -0.530870    11A     -0.417491    12A     -0.358862

  @DF-RHF Final Energy:  -149.14376405187815

   => Energetics <=

    Nuclear Repulsion Energy =             72.3341935036807371
    One-Electron Energy =                -345.0447614314464317
    Two-Electron Energy =                 123.5668038758875298
    Total Energy =                       -149.1437640518781507

  Dipole Moment: [D]
     X:     2.3210      Y:     2.2608      Z:    -0.0000     Total:     3.2401

    SAPT Results
  --------------------------------------------------------------------------------------------------------
    Electrostatics                -92.40077218 [mEh]     -57.98235993 [kcal/mol]    -242.59819395 [kJ/mol]
      Elst10,r                    -93.51229016 [mEh]     -58.67984799 [kcal/mol]    -245.51648400 [kJ/mol]
      Elst12,r                      1.11151798 [mEh]       0.69748806 [kcal/mol]       2.91829006 [kJ/mol]

    Exchange                      152.28727063 [mEh]      95.56170505 [kcal/mol]     399.83017394 [kJ/mol]
      Exch10                      142.11105178 [mEh]      89.17603132 [kcal/mol]     373.11251505 [kJ/mol]
      Exch10(S^2)                 135.20355027 [mEh]      84.84150868 [kcal/mol]     354.97687232 [kJ/mol]
      Exch11(S^2)                   1.57156538 [mEh]       0.98617217 [kcal/mol]       4.12614434 [kJ/mol]
      Exch12(S^2)                   8.60465346 [mEh]       5.39950157 [kcal/mol]      22.59151455 [kJ/mol]

    Induction                     -66.49909956 [mEh]     -41.72881497 [kcal/mol]    -174.59336184 [kJ/mol]
      Ind20,r                     -81.06763858 [mEh]     -50.87071122 [kcal/mol]    -212.84305576 [kJ/mol]
      Ind22                        -8.37748657 [mEh]      -5.25695219 [kcal/mol]     -21.99508795 [kJ/mol]
      Exch-Ind20,r                 45.06688145 [mEh]      28.27989506 [kcal/mol]     118.32308095 [kJ/mol]
      Exch-Ind22                    4.65718751 [mEh]       2.92242928 [kcal/mol]      12.22744413 [kJ/mol]
      delta HF,r (2)              -26.77804338 [mEh]     -16.80347591 [kcal/mol]     -70.30574320 [kJ/mol]

    Dispersion                    -28.09015494 [mEh]     -17.62683835 [kcal/mol]     -73.75069164 [kJ/mol]
      Disp20                      -33.23879516 [mEh]     -20.85765886 [kcal/mol]     -87.26844466 [kJ/mol]
      Disp21                        3.62112029 [mEh]       2.27228729 [kcal/mol]       9.50725002 [kJ/mol]
      Disp22 (SDQ)                 -0.39256035 [mEh]      -0.24633534 [kcal/mol]      -1.03066705 [kJ/mol]
      Disp22 (T)                   -5.08248436 [mEh]      -3.18930708 [kcal/mol]     -13.34406084 [kJ/mol]
      Est. Disp22 (T)              -5.70618738 [mEh]      -3.58068664 [kcal/mol]     -14.98159290 [kJ/mol]
      Exch-Disp20                   7.62626765 [mEh]       4.78555520 [kcal/mol]      20.02276295 [kJ/mol]

  Total HF                        -14.18003888 [mEh]      -8.89810874 [kcal/mol]     -37.22968696 [kJ/mol]
  Total SAPT0                     -39.79256640 [mEh]     -24.97021240 [kcal/mol]    -104.47536868 [kJ/mol]
  Total SAPT2                     -32.22512863 [mEh]     -20.22157351 [kcal/mol]     -84.60706356 [kJ/mol]
  Total SAPT2+                    -34.70275606 [mEh]     -21.77630819 [kcal/mol]     -91.11207349 [kJ/mol]

  Special recipe for scaled SAPT0 (see Manual):
    Electrostatics sSAPT0         -93.51229016 [mEh]     -58.67984799 [kcal/mol]    -245.51648400 [kJ/mol]
    Exchange sSAPT0               142.11105178 [mEh]      89.17603132 [kcal/mol]     373.11251505 [kJ/mol]
    Induction sSAPT0              -55.51254348 [mEh]     -34.83464695 [kcal/mol]    -145.74816282 [kJ/mol]
    Dispersion sSAPT0             -24.38292344 [mEh]     -15.30051546 [kcal/mol]     -64.01735668 [kJ/mol]
  Total sSAPT0                    -31.29670530 [mEh]     -19.63897907 [kcal/mol]     -82.16948845 [kJ/mol]
  --------------------------------------------------------------------------------------------------------

*** Psi4 exiting successfully. Buy a developer a beer!
