                               Psi4 1.3.2 release

  ==> Input File <==

--------------------------------------------------------------------------
#psi4
#
memory 32 gb

molecule  {
0 1
  C        2.1022740    -0.1999910     0.0000010
  H        3.1931760    -0.2048250     0.0000000
  N        1.3929100    -1.2773340     0.0000000
  H        2.0119970    -2.0793170    -0.0000010
  N        1.5658380     1.0343930     0.0000000
  H        0.5512430     1.1716950     0.0000000
  H        2.1722770     1.8295020    -0.0000010
--
0 1
  C       -1.9543366     0.1878439     0.0000000
  H       -3.0452386     0.1926779     0.0000000
  N       -1.2449726     1.2651869     0.0000000
  H       -1.8640596     2.0671700     0.0000000
  N       -1.4179006    -1.0465400     0.0000000
  H       -0.4033056    -1.1838420     0.0000000
  H       -2.0243396    -1.8416491     0.0000000
units angstrom
no_reorient  #important for SAPT in psi4, default
symmetry c1  #important for SAPT in psi4, default
}

set {
basis aug-cc-pVTZ
scf_type DF
freeze_core True
}
energy('sapt2+')
--------------------------------------------------------------------------

  //              Dimer HF             //
    Molecular point group: c1
  Charge       = 0
  Multiplicity = 1
  Basis Set: AUG-CC-PVTZ
    Blend: AUG-CC-PVTZ
  Basis Set: (AUG-CC-PVTZ AUX)
    Blend: AUG-CC-PVTZ-JKFIT
  @DF-RHF Final Energy:  -298.29974853396800
    Total Energy =                       -298.2997485339679997
  //            Monomer A HF           //
    Molecular point group: c1
  Multiplicity = 1
  Basis Set: AUG-CC-PVTZ
    Blend: AUG-CC-PVTZ
  Basis Set: (AUG-CC-PVTZ AUX)
    Blend: AUG-CC-PVTZ-JKFIT
  @DF-RHF Final Energy:  -149.14312583616041
    Total Energy =                       -149.1431258361604080
  //            Monomer B HF           //
    Molecular point group: c1

    Geometry (in Angstrom), charge = 0, multiplicity = 1:

       Center              X                  Y                   Z               Mass
    ------------   -----------------  -----------------  -----------------  -----------------
      Gh(C)           2.028305300000    -0.193917468188     0.000000886638    12.000000000000
      Gh(H)           3.119207300000    -0.198751468188    -0.000000113362     1.007825032230
      Gh(N)           1.318941300000    -1.271260468188    -0.000000113362    14.003074004430
      Gh(H)           1.938028300000    -2.073243468188    -0.000001113362     1.007825032230
      Gh(N)           1.491869300000     1.040466531812    -0.000000113362    14.003074004430
      Gh(H)           0.477274300000     1.177768531812    -0.000000113362     1.007825032230
      Gh(H)           2.098308300000     1.835575531812    -0.000001113362     1.007825032230
         C           -2.028305300000     0.193917431812    -0.000000113362    12.000000000000
         H           -3.119207300000     0.198751431812    -0.000000113362     1.007825032230
         N           -1.318941300000     1.271260431812    -0.000000113362    14.003074004430
         H           -1.938028300000     2.073243531812    -0.000000113362     1.007825032230
         N           -1.491869300000    -1.040466468188    -0.000000113362    14.003074004430
         H           -0.477274300000    -1.177768468188    -0.000000113362     1.007825032230
         H           -2.098308300000    -1.835575568188    -0.000000113362     1.007825032230

  Charge       = 0
  Multiplicity = 1
  Basis Set: AUG-CC-PVTZ
    Blend: AUG-CC-PVTZ
  Basis Set: (AUG-CC-PVTZ AUX)
    Blend: AUG-CC-PVTZ-JKFIT

    Orbital Energies [Eh]
    ---------------------

    Doubly Occupied:

       1A    -15.581651     2A    -15.519545     3A    -11.314764
       4A     -1.258999     5A     -1.137045     6A     -0.829937
       7A     -0.745809     8A     -0.639650     9A     -0.615820
      10A     -0.530065    11A     -0.419651    12A     -0.359456

  @DF-RHF Final Energy:  -149.14312583251220

   => Energetics <=

    Nuclear Repulsion Energy =             72.1807096948148796
    One-Electron Energy =                -344.7428838270780034
    Two-Electron Energy =                 123.4190482997509264
    Total Energy =                       -149.1431258325121973

  Dipole Moment: [D]
     X:    -2.0901      Y:    -2.5221      Z:     0.0000     Total:     3.2755

    SAPT Results
  --------------------------------------------------------------------------------------------------------
    Electrostatics                -54.95407384 [mEh]     -34.48420196 [kcal/mol]    -144.28190098 [kJ/mol]
      Elst10,r                    -54.81917131 [mEh]     -34.39954934 [kcal/mol]    -143.92771444 [kJ/mol]
      Elst12,r                     -0.13490253 [mEh]      -0.08465261 [kcal/mol]      -0.35418654 [kJ/mol]

    Exchange                       72.69345236 [mEh]      45.61583004 [kcal/mol]     190.85663288 [kJ/mol]
      Exch10                       67.10606979 [mEh]      42.10969454 [kcal/mol]     176.18696197 [kJ/mol]
      Exch10(S^2)                  65.56302557 [mEh]      41.14141967 [kcal/mol]     172.13569992 [kJ/mol]
      Exch11(S^2)                   0.94422614 [mEh]       0.59251085 [kcal/mol]       2.47906539 [kJ/mol]
      Exch12(S^2)                   4.64315643 [mEh]       2.91362465 [kcal/mol]      12.19060552 [kJ/mol]

    Induction                     -27.21873522 [mEh]     -17.08001421 [kcal/mol]     -71.46277946 [kJ/mol]
      Ind20,r                     -32.61618743 [mEh]     -20.46696661 [kcal/mol]     -85.63378829 [kJ/mol]
      Ind22                        -3.28839178 [mEh]      -2.06349700 [kcal/mol]      -8.63367143 [kJ/mol]
      Exch-Ind20,r                 18.38330387 [mEh]      11.53569734 [kcal/mol]      48.26535766 [kJ/mol]
      Exch-Ind22                    1.85342035 [mEh]       1.16303883 [kcal/mol]       4.86615445 [kJ/mol]
      delta HF,r (2)              -11.55088022 [mEh]      -7.24828677 [kcal/mol]     -30.32683185 [kJ/mol]

    Dispersion                    -18.07038745 [mEh]     -11.33933932 [kcal/mol]     -47.44379571 [kJ/mol]
      Disp20                      -20.96244659 [mEh]     -13.15413383 [kcal/mol]     -55.03689593 [kJ/mol]
      Disp21                        1.62946294 [mEh]       1.02250343 [kcal/mol]       4.27815435 [kJ/mol]
      Disp22 (SDQ)                  0.31146522 [mEh]       0.19544737 [kcal/mol]       0.81775181 [kJ/mol]
      Disp22 (T)                   -3.14348754 [mEh]      -1.97256821 [kcal/mol]      -8.25322540 [kJ/mol]
      Est. Disp22 (T)              -3.58626873 [mEh]      -2.25041760 [kcal/mol]      -9.41574725 [kJ/mol]
      Exch-Disp20                   4.53739971 [mEh]       2.84726131 [kcal/mol]      11.91294130 [kJ/mol]

  Total HF                        -13.49686530 [mEh]      -8.46941084 [kcal/mol]     -35.43601495 [kJ/mol]
  Total SAPT0                     -29.92191217 [mEh]     -18.77628336 [kcal/mol]     -78.55996958 [kJ/mol]
  Total SAPT2                     -25.90440357 [mEh]     -16.25525865 [kcal/mol]     -68.01200219 [kJ/mol]
  Total SAPT2+                    -27.54974414 [mEh]     -17.28772545 [kcal/mol]     -72.33184328 [kJ/mol]

  Special recipe for scaled SAPT0 (see Manual):
    Electrostatics sSAPT0         -54.81917131 [mEh]     -34.39954934 [kcal/mol]    -143.92771444 [kJ/mol]
    Exchange sSAPT0                67.10606979 [mEh]      42.10969454 [kcal/mol]     176.18696197 [kJ/mol]
    Induction sSAPT0              -24.45500741 [mEh]     -15.34574883 [kcal/mol]     -64.20661311 [kJ/mol]
    Dispersion sSAPT0             -16.09708087 [mEh]     -10.10107074 [kcal/mol]     -42.26287999 [kJ/mol]
  Total sSAPT0                    -28.26518979 [mEh]     -17.73667437 [kcal/mol]     -74.21024557 [kJ/mol]
  --------------------------------------------------------------------------------------------------------

*** Psi4 exiting successfully. Buy a developer a beer!
