                               Psi4 1.3.2 release

  ==> Input File <==

--------------------------------------------------------------------------
#psi4
#
memory 32 gb

molecule  {
0 1
  C       -1.9521150     0.2323370    -0.0000010
  H       -3.0450720     0.2485030     0.0000010
  O       -1.2823360     1.2482650     0.0000000
  O       -1.5045270    -1.0066940    -0.0000010
  H       -0.5061810    -1.0124010    -0.0000010
--
0 1
  C        2.0928333    -0.2562440     0.0000031
  H        3.1755293    -0.4282700    -0.0000009
  O        1.3034443    -1.1993770     0.0000001
  N        1.7480003     1.0369080     0.0000010
  H        0.7625953     1.2882280     0.0000001
  H        2.4582143     1.7437880    -0.0000009
units angstrom
no_reorient  #important for SAPT in psi4, default
symmetry c1  #important for SAPT in psi4, default
}

set {
basis aug-cc-pVTZ
scf_type DF
freeze_core True
}
energy('sapt2+')
--------------------------------------------------------------------------

  //              Dimer HF             //
    Molecular point group: c1
  Charge       = 0
  Multiplicity = 1
  Basis Set: AUG-CC-PVTZ
    Blend: AUG-CC-PVTZ
  Basis Set: (AUG-CC-PVTZ AUX)
    Blend: AUG-CC-PVTZ-JKFIT
  @DF-RHF Final Energy:  -357.86741214558731
    Total Energy =                       -357.8674121455873092
  //            Monomer A HF           //
    Molecular point group: c1
  Multiplicity = 1
  Basis Set: AUG-CC-PVTZ
    Blend: AUG-CC-PVTZ
  Basis Set: (AUG-CC-PVTZ AUX)
    Blend: AUG-CC-PVTZ-JKFIT
  @DF-RHF Final Energy:  -188.84117647765828
    Total Energy =                       -188.8411764776582800
  //            Monomer B HF           //
    Molecular point group: c1

    Geometry (in Angstrom), charge = 0, multiplicity = 1:

       Center              X                  Y                   Z               Mass
    ------------   -----------------  -----------------  -----------------  -----------------
      Gh(C)          -2.010407526604     0.223908340176    -0.000001253709    12.000000000000
      Gh(H)          -3.103364526604     0.240074340176     0.000000746291     1.007825032230
      Gh(O)          -1.340628526604     1.239836340176    -0.000000253709    15.994914619570
      Gh(O)          -1.562819526604    -1.015122659824    -0.000001253709    15.994914619570
      Gh(H)          -0.564473526604    -1.020829659824    -0.000001253709     1.007825032230
         C            2.034540773396    -0.264672659824     0.000002846291    12.000000000000
         H            3.117236773396    -0.436698659824    -0.000001153709     1.007825032230
         O            1.245151773396    -1.207805659824    -0.000000153709    15.994914619570
         N            1.689707773396     1.028479340176     0.000000746291    14.003074004430
         H            0.704302773396     1.279799340176    -0.000000153709     1.007825032230
         H            2.399921773396     1.735359340176    -0.000001153709     1.007825032230

  Charge       = 0
  Multiplicity = 1
  Basis Set: AUG-CC-PVTZ
    Blend: AUG-CC-PVTZ
  Basis Set: (AUG-CC-PVTZ AUX)
    Blend: AUG-CC-PVTZ-JKFIT

    Orbital Energies [Eh]
    ---------------------

    Doubly Occupied:

       1A    -20.526112     2A    -15.602162     3A    -11.355938
       4A     -1.375709     5A     -1.228496     6A     -0.855267
       7A     -0.758905     8A     -0.677472     9A     -0.602302
      10A     -0.572019    11A     -0.434839    12A     -0.421735

  @DF-RHF Final Energy:  -169.00323835764846

   => Energetics <=

    Nuclear Repulsion Energy =             71.2263167891483846
    One-Electron Energy =                -371.6371929986731857
    Two-Electron Energy =                 131.4076378518763590
    Total Energy =                       -169.0032383576484563

  Dipole Moment: [D]
     X:     1.8682      Y:     4.0722      Z:    -0.0000     Total:     4.4803

    SAPT Results
  --------------------------------------------------------------------------------------------------------
    Electrostatics                -33.88251070 [mEh]     -21.26159646 [kcal/mol]     -88.95851960 [kJ/mol]
      Elst10,r                    -35.89830280 [mEh]     -22.52652510 [kcal/mol]     -94.25098102 [kJ/mol]
      Elst12,r                      2.01579210 [mEh]       1.26492864 [kcal/mol]       5.29246143 [kJ/mol]

    Exchange                       31.22639920 [mEh]      19.59486133 [kcal/mol]      81.98489981 [kJ/mol]
      Exch10                       26.53285778 [mEh]      16.64961962 [kcal/mol]      69.66200851 [kJ/mol]
      Exch10(S^2)                  26.26911748 [mEh]      16.48412009 [kcal/mol]      68.96955844 [kJ/mol]
      Exch11(S^2)                   0.11990980 [mEh]       0.07524454 [kcal/mol]       0.31482314 [kJ/mol]
      Exch12(S^2)                   4.57363162 [mEh]       2.86999717 [kcal/mol]      12.00806817 [kJ/mol]

    Induction                     -14.81345408 [mEh]      -9.29558278 [kcal/mol]     -38.89271833 [kJ/mol]
      Ind20,r                     -15.72307327 [mEh]      -9.86637743 [kcal/mol]     -41.28092317 [kJ/mol]
      Ind22                        -2.25528227 [mEh]      -1.41521099 [kcal/mol]      -5.92124280 [kJ/mol]
      Exch-Ind20,r                  7.48543143 [mEh]       4.69717914 [kcal/mol]      19.65299750 [kJ/mol]
      Exch-Ind22                    1.07369345 [mEh]       0.67375281 [kcal/mol]       2.81898177 [kJ/mol]
      delta HF,r (2)               -5.39422342 [mEh]      -3.38492630 [kcal/mol]     -14.16253164 [kJ/mol]

    Dispersion                    -10.64467559 [mEh]      -6.67963478 [kcal/mol]     -27.94759192 [kJ/mol]
      Disp20                      -10.83858580 [mEh]      -6.80131527 [kcal/mol]     -28.45670311 [kJ/mol]
      Disp21                        0.75979747 [mEh]       0.47678011 [kcal/mol]       1.99484798 [kJ/mol]
      Disp22 (SDQ)                 -0.31357410 [mEh]      -0.19677072 [kcal/mol]      -0.82328870 [kJ/mol]
      Disp22 (T)                   -1.87346364 [mEh]      -1.17561618 [kcal/mol]      -4.91877811 [kJ/mol]
      Est. Disp22 (T)              -2.14486665 [mEh]      -1.34592414 [kcal/mol]      -5.63134662 [kJ/mol]
      Exch-Disp20                   1.89255350 [mEh]       1.18759525 [kcal/mol]       4.96889853 [kJ/mol]

  Total HF                        -22.99731028 [mEh]     -14.43103007 [kcal/mol]     -60.37942982 [kJ/mol]
  Total SAPT0                     -31.94334259 [mEh]     -20.04475010 [kcal/mol]     -83.86723440 [kJ/mol]
  Total SAPT2                     -26.41559789 [mEh]     -16.57603793 [kcal/mol]     -69.35414269 [kJ/mol]
  Total SAPT2+                    -28.11424117 [mEh]     -17.64195268 [kcal/mol]     -73.81393003 [kJ/mol]

  Special recipe for scaled SAPT0 (see Manual):
    Electrostatics sSAPT0         -35.89830280 [mEh]     -22.52652510 [kcal/mol]     -94.25098102 [kJ/mol]
    Exchange sSAPT0                26.53285778 [mEh]      16.64961962 [kcal/mol]      69.66200851 [kJ/mol]
    Induction sSAPT0              -13.40413429 [mEh]      -8.41122125 [kcal/mol]     -35.19254972 [kJ/mol]
    Dispersion sSAPT0              -8.88845472 [mEh]      -5.57758955 [kcal/mol]     -23.33663466 [kJ/mol]
  Total sSAPT0                    -31.65803403 [mEh]     -19.86571627 [kcal/mol]     -83.11815689 [kJ/mol]
  --------------------------------------------------------------------------------------------------------

*** Psi4 exiting successfully. Buy a developer a beer!
