                               Psi4 1.3.2 release

  ==> Input File <==

--------------------------------------------------------------------------
#psi4
#
memory 32 gb

molecule  {
0 1
  C        2.0083120    -0.3372920     0.0000040
  H        3.1030340    -0.4288200    -0.0000030
  O        1.2864570    -1.3299810     0.0000000
  N        1.5810970     0.9343630     0.0000010
  H        0.5827550     1.1459700     0.0000010
  H        2.5389234     1.6391172    -0.0000030
--
0 1
  C       -1.7215566     0.2977302     0.0000010
  H       -2.8162786     0.3892582    -0.0000010
  O       -0.9997016     1.2904192     0.0000000
  N       -1.2943416    -0.9739248     0.0000000
  H       -0.2959996    -1.1855318     0.0000000
  H       -1.9654126    -1.7182408    -0.0000010
units angstrom
no_reorient  #important for SAPT in psi4, default
symmetry c1  #important for SAPT in psi4, default
}

set {
basis aug-cc-pVTZ
scf_type DF
freeze_core True
}
energy('sapt2+')
--------------------------------------------------------------------------

  //              Dimer HF             //
    Molecular point group: c1
  Charge       = 0
  Multiplicity = 1
  Basis Set: AUG-CC-PVTZ
    Blend: AUG-CC-PVTZ
  Basis Set: (AUG-CC-PVTZ AUX)
    Blend: AUG-CC-PVTZ-JKFIT
  @DF-RHF Final Energy:  -337.98630718509537
    Total Energy =                       -337.9863071850953702
  //            Monomer A HF           //
    Molecular point group: c1
  Multiplicity = 1
  Basis Set: AUG-CC-PVTZ
    Blend: AUG-CC-PVTZ
  Basis Set: (AUG-CC-PVTZ AUX)
    Blend: AUG-CC-PVTZ-JKFIT
  @DF-RHF Final Energy:  -168.97087366725668
    Total Energy =                       -168.9708736672566829
  //            Monomer B HF           //
    Molecular point group: c1

    Geometry (in Angstrom), charge = 0, multiplicity = 1:

       Center              X                  Y                   Z               Mass
    ------------   -----------------  -----------------  -----------------  -----------------
      Gh(C)           1.861724727872    -0.317068295956     0.000003256485    12.000000000000
      Gh(H)           2.956446727872    -0.408596295956    -0.000003743515     1.007825032230
      Gh(O)           1.139869727872    -1.309757295956    -0.000000743515    15.994914619570
      Gh(N)           1.434509727872     0.954586704044     0.000000256485    14.003074004430
      Gh(H)           0.436167727872     1.166193704044     0.000000256485     1.007825032230
      Gh(H)           2.392336127872     1.659340904044    -0.000003743515     1.007825032230
         C           -1.868143872128     0.317953904044     0.000000256485    12.000000000000
         H           -2.962865872128     0.409481904044    -0.000001743515     1.007825032230
         O           -1.146288872128     1.310642904044    -0.000000743515    15.994914619570
         N           -1.440928872128    -0.953701095956    -0.000000743515    14.003074004430
         H           -0.442586872128    -1.165308095956    -0.000000743515     1.007825032230
         H           -2.111999872128    -1.698017095956    -0.000001743515     1.007825032230

  Charge       = 0
  Multiplicity = 1
  Basis Set: AUG-CC-PVTZ
    Blend: AUG-CC-PVTZ
  Basis Set: (AUG-CC-PVTZ AUX)
    Blend: AUG-CC-PVTZ-JKFIT

    Orbital Energies [Eh]
    ---------------------

    Doubly Occupied:

       1A    -20.526911     2A    -15.602075     3A    -11.356539
       4A     -1.376912     5A     -1.227357     6A     -0.854895
       7A     -0.756193     8A     -0.677326     9A     -0.603152
      10A     -0.571929    11A     -0.435223    12A     -0.422117

  @DF-RHF Final Energy:  -169.00336506116173

   => Energetics <=

    Nuclear Repulsion Energy =             71.1611145121232624
    One-Electron Energy =                -371.5076992422553985
    Two-Electron Energy =                 131.3432196689703915
    Total Energy =                       -169.0033650611617304

  Dipole Moment: [D]
     X:    -1.5813      Y:    -4.1735      Z:    -0.0000     Total:     4.4631

    SAPT Results
  --------------------------------------------------------------------------------------------------------
    Electrostatics                -66.22029886 [mEh]     -41.55386489 [kcal/mol]    -173.86137071 [kJ/mol]
      Elst10,r                    -67.61335844 [mEh]     -42.42802297 [kcal/mol]    -177.51884812 [kJ/mol]
      Elst12,r                      1.39305957 [mEh]       0.87415808 [kcal/mol]       3.65747741 [kJ/mol]

    Exchange                      100.91483343 [mEh]      63.32501402 [kcal/mol]     264.95185866 [kJ/mol]
      Exch10                       91.44510087 [mEh]      57.38266713 [kcal/mol]     240.08907926 [kJ/mol]
      Exch10(S^2)                  89.03272581 [mEh]      55.86887892 [kcal/mol]     233.75538940 [kJ/mol]
      Exch11(S^2)                   0.45524738 [mEh]       0.28567204 [kcal/mol]       1.19525183 [kJ/mol]
      Exch12(S^2)                   9.01448517 [mEh]       5.65667485 [kcal/mol]      23.66752756 [kJ/mol]

    Induction                     -38.41528317 [mEh]     -24.10595413 [kcal/mol]    -100.85931208 [kJ/mol]
      Ind20,r                     -45.75553074 [mEh]     -28.71202902 [kcal/mol]    -120.13112940 [kJ/mol]
      Ind22                        -6.00192004 [mEh]      -3.76626169 [kcal/mol]     -15.75803889 [kJ/mol]
      Exch-Ind20,r                 26.58183209 [mEh]      16.68035147 [kcal/mol]      69.79059053 [kJ/mol]
      Exch-Ind22                    3.48683598 [mEh]       2.18802261 [kcal/mol]       9.15468659 [kJ/mol]
      delta HF,r (2)              -16.72650046 [mEh]     -10.49603750 [kcal/mol]     -43.91542091 [kJ/mol]

    Dispersion                    -21.55588925 [mEh]     -13.52652472 [kcal/mol]     -56.59497942 [kJ/mol]
      Disp20                      -24.65192681 [mEh]     -15.46931762 [kcal/mol]     -64.72362494 [kJ/mol]
      Disp21                        2.31004130 [mEh]       1.44957280 [kcal/mol]       6.06501260 [kJ/mol]
      Disp22 (SDQ)                 -0.33389219 [mEh]      -0.20952051 [kcal/mol]      -0.87663383 [kJ/mol]
      Disp22 (T)                   -3.82533148 [mEh]      -2.40043174 [kcal/mol]     -10.04340642 [kJ/mol]
      Est. Disp22 (T)              -4.35095619 [mEh]      -2.73026623 [kcal/mol]     -11.42343390 [kJ/mol]
      Exch-Disp20                   5.47084465 [mEh]       3.43300685 [kcal/mol]      14.36370065 [kJ/mol]

  Total HF                        -12.06845668 [mEh]      -7.57307090 [kcal/mol]     -31.68572864 [kJ/mol]
  Total SAPT0                     -31.24953884 [mEh]     -19.60938167 [kcal/mol]     -82.04565293 [kJ/mol]
  Total SAPT2                     -22.90183078 [mEh]     -14.37111578 [kcal/mol]     -60.12874842 [kJ/mol]
  Total SAPT2+                    -25.27663786 [mEh]     -15.86132972 [kcal/mol]     -66.36380356 [kJ/mol]

  Special recipe for scaled SAPT0 (see Manual):
    Electrostatics sSAPT0         -67.61335844 [mEh]     -42.42802297 [kcal/mol]    -177.51884812 [kJ/mol]
    Exchange sSAPT0                91.44510087 [mEh]      57.38266713 [kcal/mol]     240.08907926 [kJ/mol]
    Induction sSAPT0              -33.68039033 [mEh]     -21.13476402 [kcal/mol]     -88.42785264 [kJ/mol]
    Dispersion sSAPT0             -18.72422017 [mEh]     -11.74962554 [kcal/mol]     -49.16043327 [kJ/mol]
  Total sSAPT0                    -28.57286806 [mEh]     -17.92974540 [kcal/mol]     -75.01805477 [kJ/mol]
  --------------------------------------------------------------------------------------------------------

*** Psi4 exiting successfully. Buy a developer a beer!
