                               Psi4 1.3.2 release

  ==> Input File <==

--------------------------------------------------------------------------
#psi4
#
memory 32 gb

molecule  {
0 1
  C        1.9047060    -0.1798760     0.0000010
  H        2.9930900    -0.2590830    -0.0000010
  O        1.1798480    -1.1602640     0.0000000
  O        1.5170880     1.0770050     0.0000000
  H        0.5236580     1.1098660     0.0000010
--
0 1
  C       -1.6350342     0.1715304    -0.0000010
  H       -2.7234243     0.2506724     0.0000000
  O       -0.9102352     1.1519624     0.0000000
  O       -1.2473342    -1.0853246     0.0000000
  H       -0.2538883    -1.1181246     0.0000010
units angstrom
no_reorient  #important for SAPT in psi4, default
symmetry c1  #important for SAPT in psi4, default
}

set {
basis aug-cc-pVTZ
scf_type DF
freeze_core True
}
energy('sapt2+')
--------------------------------------------------------------------------

  //              Dimer HF             //
    Molecular point group: c1
  Charge       = 0
  Multiplicity = 1
  Basis Set: AUG-CC-PVTZ
    Blend: AUG-CC-PVTZ
  Basis Set: (AUG-CC-PVTZ AUX)
    Blend: AUG-CC-PVTZ-JKFIT
  @DF-RHF Final Energy:  -377.69668050447808
    Total Energy =                       -377.6966805044780813
  //            Monomer A HF           //
    Molecular point group: c1
  Multiplicity = 1
  Basis Set: AUG-CC-PVTZ
    Blend: AUG-CC-PVTZ
  Basis Set: (AUG-CC-PVTZ AUX)
    Blend: AUG-CC-PVTZ-JKFIT
  @DF-RHF Final Energy:  -188.84156563566950
    Total Energy =                       -188.8415656356694967
  //            Monomer B HF           //
    Molecular point group: c1

    Geometry (in Angstrom), charge = 0, multiplicity = 1:

       Center              X                  Y                   Z               Mass
    ------------   -----------------  -----------------  -----------------  -----------------
      Gh(C)           1.769865096233    -0.175715609567     0.000000989047    12.000000000000
      Gh(H)           2.858249096233    -0.254922609567    -0.000001010953     1.007825032230
      Gh(O)           1.045007096233    -1.156103609567    -0.000000010953    15.994914619570
      Gh(O)           1.382247096233     1.081165390433    -0.000000010953    15.994914619570
      Gh(H)           0.388817096233     1.114026390433     0.000000989047     1.007825032230
         C           -1.769875103767     0.175690790433    -0.000001010953    12.000000000000
         H           -2.858265203767     0.254832790433    -0.000000010953     1.007825032230
         O           -1.045076103767     1.156122790433    -0.000000010953    15.994914619570
         O           -1.382175103767    -1.081164209567    -0.000000010953    15.994914619570
         H           -0.388729203767    -1.113964209567     0.000000989047     1.007825032230

  Charge       = 0
  Multiplicity = 1
  Basis Set: AUG-CC-PVTZ
    Blend: AUG-CC-PVTZ
  Basis Set: (AUG-CC-PVTZ AUX)
    Blend: AUG-CC-PVTZ-JKFIT

    Orbital Energies [Eh]
    ---------------------

    Doubly Occupied:

       1A    -20.638301     2A    -20.561622     3A    -11.396499
       4A     -1.482708     5A     -1.369359     6A     -0.901957
       7A     -0.731333     8A     -0.712057     9A     -0.644335
      10A     -0.597435    11A     -0.491010    12A     -0.470902

  @DF-RHF Final Energy:  -188.84156447020024

   => Energetics <=

    Nuclear Repulsion Energy =             70.1580372952030444
    One-Electron Energy =                -398.0041703142593406
    Two-Electron Energy =                 139.0045685488560707
    Total Energy =                       -188.8415644702002396

  Dipole Moment: [D]
     X:    -0.4963      Y:    -1.9980      Z:    -0.0000     Total:     2.0587

    SAPT Results
  --------------------------------------------------------------------------------------------------------
    Electrostatics                -83.28652063 [mEh]     -52.26308074 [kcal/mol]    -218.66872980 [kJ/mol]
      Elst10,r                    -85.18562854 [mEh]     -53.45478894 [kcal/mol]    -223.65483691 [kJ/mol]
      Elst12,r                      1.89910790 [mEh]       1.19170820 [kcal/mol]       4.98610712 [kJ/mol]

    Exchange                      143.22169683 [mEh]      89.87297161 [kcal/mol]     376.02851322 [kJ/mol]
      Exch10                      129.64923337 [mEh]      81.35612220 [kcal/mol]     340.39401531 [kJ/mol]
      Exch10(S^2)                 125.12749886 [mEh]      78.51869097 [kcal/mol]     328.52220300 [kJ/mol]
      Exch11(S^2)                   0.38289455 [mEh]       0.24026996 [kcal/mol]       1.00528951 [kJ/mol]
      Exch12(S^2)                  13.18956891 [mEh]       8.27657945 [kcal/mol]      34.62920841 [kJ/mol]

    Induction                     -62.54539241 [mEh]     -39.24782628 [kcal/mol]    -164.21290514 [kJ/mol]
      Ind20,r                     -75.01734174 [mEh]     -47.07409264 [kcal/mol]    -196.95800362 [kJ/mol]
      Ind22                       -10.57891446 [mEh]      -6.63836905 [kcal/mol]     -27.77493609 [kJ/mol]
      Exch-Ind20,r                 42.88429481 [mEh]      26.91030127 [kcal/mol]     112.59270051 [kJ/mol]
      Exch-Ind22                    6.04752549 [mEh]       3.79487954 [kcal/mol]      15.87777599 [kJ/mol]
      delta HF,r (2)              -25.88095650 [mEh]     -16.24054539 [kcal/mol]     -67.95044193 [kJ/mol]

    Dispersion                    -26.44729236 [mEh]     -16.59592651 [kcal/mol]     -69.43735652 [kJ/mol]
      Disp20                      -30.10122937 [mEh]     -18.88880660 [kcal/mol]     -79.03076683 [kJ/mol]
      Disp21                        3.21587121 [mEh]       2.01798965 [kcal/mol]       8.44326870 [kJ/mol]
      Disp22 (SDQ)                 -1.07457259 [mEh]      -0.67430448 [kcal/mol]      -2.82128995 [kJ/mol]
      Disp22 (T)                   -4.80851261 [mEh]      -3.01738722 [kcal/mol]     -12.62474811 [kJ/mol]
      Est. Disp22 (T)              -5.43175374 [mEh]      -3.40847693 [kcal/mol]     -14.26106748 [kJ/mol]
      Exch-Disp20                   6.94439213 [mEh]       4.35767185 [kcal/mol]      18.23249904 [kJ/mol]

  Total HF                        -13.55039861 [mEh]      -8.50300350 [kcal/mol]     -35.57656664 [kJ/mol]
  Total SAPT0                     -36.70723585 [mEh]     -23.03413825 [kcal/mol]     -96.37483444 [kJ/mol]
  Total SAPT2                     -25.76705345 [mEh]     -16.16907015 [kcal/mol]     -67.65138950 [kJ/mol]
  Total SAPT2+                    -29.05750857 [mEh]     -18.23386191 [kcal/mol]     -76.29047823 [kJ/mol]

  Special recipe for scaled SAPT0 (see Manual):
    Electrostatics sSAPT0         -85.18562854 [mEh]     -53.45478894 [kcal/mol]    -223.65483691 [kJ/mol]
    Exchange sSAPT0               129.64923337 [mEh]      81.35612220 [kcal/mol]     340.39401531 [kJ/mol]
    Induction sSAPT0              -53.19484253 [mEh]     -33.38026765 [kcal/mol]    -139.66303983 [kJ/mol]
    Dispersion sSAPT0             -22.37645497 [mEh]     -14.04143749 [kcal/mol]     -58.74937444 [kJ/mol]
  Total sSAPT0                    -31.10769268 [mEh]     -19.52037186 [kcal/mol]     -81.67323588 [kJ/mol]
  --------------------------------------------------------------------------------------------------------

*** Psi4 exiting successfully. Buy a developer a beer!
