                               Psi4 1.3.2 release

  ==> Input File <==

--------------------------------------------------------------------------
#psi4
#
memory 32 gb

molecule  {
0 1
  C       -1.9644470     0.1609890    -0.0000020
  H       -3.0589320     0.1627090    -0.0000040
  O       -1.3160380     1.1929960    -0.0000020
  O       -1.4968300    -1.0660630     0.0000020
  H       -0.4778920    -1.0649310     0.0000090
--
0 1
  C        2.2818153    -0.1935693    -0.0000030
  H        3.3636313    -0.3157943    -0.0000050
  N        1.4640243    -1.1909363    -0.0000009
  H        1.9746193    -2.0644413    -0.0000009
  N        1.8669653     1.0832547     0.0000020
  H        0.8709483     1.2817877     0.0000010
  H        2.5338852     1.8279307     0.0000041
units angstrom
no_reorient  #important for SAPT in psi4, default
symmetry c1  #important for SAPT in psi4, default
}

set {
basis aug-cc-pVTZ
scf_type DF
freeze_core True
}
energy('sapt2+')
--------------------------------------------------------------------------

  //              Dimer HF             //
    Molecular point group: c1
  Charge       = 0
  Multiplicity = 1
  Basis Set: AUG-CC-PVTZ
    Blend: AUG-CC-PVTZ
  Basis Set: (AUG-CC-PVTZ AUX)
    Blend: AUG-CC-PVTZ-JKFIT
  @DF-RHF Final Energy:  -338.00741640611773
    Total Energy =                       -338.0074164061177271
  //            Monomer A HF           //
    Molecular point group: c1
  Multiplicity = 1
  Basis Set: AUG-CC-PVTZ
    Blend: AUG-CC-PVTZ
  Basis Set: (AUG-CC-PVTZ AUX)
    Blend: AUG-CC-PVTZ-JKFIT
  @DF-RHF Final Energy:  -188.83861505669009
    Total Energy =                       -188.8386150566900881
  //            Monomer B HF           //
    Molecular point group: c1

    Geometry (in Angstrom), charge = 0, multiplicity = 1:

       Center              X                  Y                   Z               Mass
    ------------   -----------------  -----------------  -----------------  -----------------
      Gh(C)          -2.083367269898     0.161462611946    -0.000001551728    12.000000000000
      Gh(H)          -3.177852269898     0.163182611946    -0.000003551728     1.007825032230
      Gh(O)          -1.434958269898     1.193469611946    -0.000001551728    15.994914619570
      Gh(O)          -1.615750269898    -1.065589388054     0.000002448272    15.994914619570
      Gh(H)          -0.596812269898    -1.064457388054     0.000009448272     1.007825032230
         C            2.162895030102    -0.193095688054    -0.000002551728    12.000000000000
         H            3.244711030102    -0.315320688054    -0.000004551728     1.007825032230
         N            1.345104030102    -1.190462688054    -0.000000451728    14.003074004430
         H            1.855699030102    -2.063967688054    -0.000000451728     1.007825032230
         N            1.748045030102     1.083728311946     0.000002448272    14.003074004430
         H            0.752028030102     1.282261311946     0.000001448272     1.007825032230
         H            2.414964930102     1.828404311946     0.000004548272     1.007825032230

  Charge       = 0
  Multiplicity = 1
  Basis Set: AUG-CC-PVTZ
    Blend: AUG-CC-PVTZ
  Basis Set: (AUG-CC-PVTZ AUX)
    Blend: AUG-CC-PVTZ-JKFIT

    Orbital Energies [Eh]
    ---------------------

    Doubly Occupied:

       1A    -15.580684     2A    -15.518368     3A    -11.313915
       4A     -1.260957     5A     -1.136091     6A     -0.830614
       7A     -0.749116     8A     -0.640568     9A     -0.618121
      10A     -0.530872    11A     -0.417498    12A     -0.358863

  @DF-RHF Final Energy:  -149.14367933421249

   => Energetics <=

    Nuclear Repulsion Energy =             72.3341930808160498
    One-Electron Energy =                -345.0444081317903056
    Two-Electron Energy =                 123.5665357167617913
    Total Energy =                       -149.1436793342124929

  Dipole Moment: [D]
     X:     2.3218      Y:     2.2610      Z:    -0.0000     Total:     3.2409

    SAPT Results
  --------------------------------------------------------------------------------------------------------
    Electrostatics                -33.77559773 [mEh]     -21.19450756 [kcal/mol]     -88.67781963 [kJ/mol]
      Elst10,r                    -35.23675855 [mEh]     -22.11139982 [kcal/mol]     -92.51409683 [kJ/mol]
      Elst12,r                      1.46116082 [mEh]       0.91689226 [kcal/mol]       3.83627721 [kJ/mol]

    Exchange                       26.82490667 [mEh]      16.83288307 [kcal/mol]      70.42878276 [kJ/mol]
      Exch10                       23.27740509 [mEh]      14.60679222 [kcal/mol]      61.11481864 [kJ/mol]
      Exch10(S^2)                  23.01297796 [mEh]      14.44086169 [kcal/mol]      60.42056530 [kJ/mol]
      Exch11(S^2)                   0.29032147 [mEh]       0.18217947 [kcal/mol]       0.76223892 [kJ/mol]
      Exch12(S^2)                   3.25718011 [mEh]       2.04391138 [kcal/mol]       8.55172520 [kJ/mol]

    Induction                     -14.01940063 [mEh]      -8.79730671 [kcal/mol]     -36.80793127 [kJ/mol]
      Ind20,r                     -14.93751573 [mEh]      -9.37343263 [kcal/mol]     -39.21844214 [kJ/mol]
      Ind22                        -1.60731562 [mEh]      -1.00860578 [kcal/mol]      -4.22000657 [kJ/mol]
      Exch-Ind20,r                  6.97545137 [mEh]       4.37716182 [kcal/mol]      18.31404505 [kJ/mol]
      Exch-Ind22                    0.75057674 [mEh]       0.47099402 [kcal/mol]       1.97063897 [kJ/mol]
      delta HF,r (2)               -5.20059740 [mEh]      -3.26342414 [kcal/mol]     -13.65416658 [kJ/mol]

    Dispersion                     -9.73483115 [mEh]      -6.10869877 [kcal/mol]     -25.55879566 [kJ/mol]
      Disp20                      -10.06170868 [mEh]      -6.31381752 [kcal/mol]     -26.41701250 [kJ/mol]
      Disp21                        0.67043080 [mEh]       0.42070168 [kcal/mol]       1.76021583 [kJ/mol]
      Disp22 (SDQ)                 -0.13324512 [mEh]      -0.08361258 [kcal/mol]      -0.34983502 [kJ/mol]
      Disp22 (T)                   -1.72301151 [mEh]      -1.08120604 [kcal/mol]      -4.52376609 [kJ/mol]
      Est. Disp22 (T)              -1.97691181 [mEh]      -1.24053089 [kcal/mol]      -5.19038123 [kJ/mol]
      Exch-Disp20                   1.76660365 [mEh]       1.10856053 [kcal/mol]       4.63821726 [kJ/mol]

  Total HF                        -25.12201522 [mEh]     -15.76430255 [kcal/mol]     -65.95784186 [kJ/mol]
  Total SAPT0                     -33.41712024 [mEh]     -20.96955954 [kcal/mol]     -87.73663711 [kJ/mol]
  Total SAPT2                     -29.26519671 [mEh]     -18.36418819 [kcal/mol]     -76.83576339 [kJ/mol]
  Total SAPT2+                    -30.70492284 [mEh]     -19.26762997 [kcal/mol]     -80.61576380 [kJ/mol]

  Special recipe for scaled SAPT0 (see Manual):
    Electrostatics sSAPT0         -35.23675855 [mEh]     -22.11139982 [kcal/mol]     -92.51409683 [kJ/mol]
    Exchange sSAPT0                23.27740509 [mEh]      14.60679222 [kcal/mol]      61.11481864 [kJ/mol]
    Induction sSAPT0              -12.91943721 [mEh]      -8.10706924 [kcal/mol]     -33.91997771 [kJ/mol]
    Dispersion sSAPT0              -8.23350595 [mEh]      -5.16660298 [kcal/mol]     -21.61706689 [kJ/mol]
  Total sSAPT0                    -33.11229662 [mEh]     -20.77827983 [kcal/mol]     -86.93632279 [kJ/mol]
  --------------------------------------------------------------------------------------------------------

*** Psi4 exiting successfully. Buy a developer a beer!
